 BEGIN_INFO
   #
   # this is a Band-XCRYSDEN-Structure-File
   # aimed at Visualization of Fermi Surface
   #
   Fermi Energy:        720.0
 END_INFO
 BEGIN_BLOCK_BANDGRID_3D
 band_energies
 BANDGRID_3D_BANDS
    9
   17    17    17
  0.00000000 0.00000000 0.00000000
  1.00000000 0.57735027 0.00000000
  0.00000000 1.15470054 0.00000000
  0.00000000 0.00000000 0.88010302
BAND:    1
-0.0000 33.9321 65.5463 94.3401 121.7426 149.5568 178.0965 205.7505 228.3859 205.7506 178.0965 149.5568 121.7426 94.3401 65.5464 33.9321 0.0000 
43.8403 69.3448 91.2586 113.3952 136.9843 161.9914 187.9314 212.9195 229.7997 212.9195 187.9315 161.9915 136.9843 113.3952 91.2586 69.3448 43.8403 
84.5422 99.5948 130.5867 152.4127 169.8549 189.0496 208.6023 225.7330 233.7579 225.7330 208.6024 189.0496 169.8549 152.4127 130.5868 99.5949 84.5422 
124.3244 134.0359 156.5974 181.1582 201.6119 214.6278 226.8473 235.9873 239.4736 235.9873 226.8473 214.6279 201.6120 181.1583 156.5975 134.0360 124.3244 
166.4919 172.6303 187.5833 204.8662 220.4516 232.5625 239.4894 244.1617 245.8037 244.1617 239.4894 232.5625 220.4516 204.8662 187.5834 172.6303 166.4919 
207.7751 211.2296 219.8634 230.3017 240.2662 244.7047 248.3780 250.7146 251.5012 250.7146 248.3780 244.7047 240.2662 230.3017 219.8634 211.2296 207.7751 
240.2347 241.8618 245.9674 248.0311 250.3257 252.5082 254.2364 255.2900 255.6343 255.2900 254.2364 252.5082 250.3257 248.0311 245.9674 241.8618 240.2347 
252.5255 252.8287 253.6169 254.6472 255.7232 256.6937 257.4123 257.8106 257.9302 257.8106 257.4123 256.6937 255.7232 254.6472 253.6169 252.8287 252.5255 
255.2935 255.5008 256.0270 256.6929 257.3728 257.9727 258.3870 258.5831 258.6318 258.5831 258.3870 257.9727 257.3728 256.6929 256.0270 255.5008 255.2935 
252.5255 252.8288 253.6169 254.6472 255.7232 256.6937 257.4123 257.8106 257.9302 257.8106 257.4123 256.6937 255.7232 254.6472 253.6169 252.8288 252.5255 
240.2345 241.8616 245.9673 248.0311 250.3256 252.5082 254.2363 255.2900 255.6343 255.2900 254.2363 252.5082 250.3256 248.0311 245.9673 241.8616 240.2345 
207.7748 211.2294 219.8632 230.3016 240.2661 244.7046 248.3780 250.7145 251.5012 250.7145 248.3780 244.7046 240.2661 230.3016 219.8632 211.2294 207.7748 
166.4923 172.6306 187.5836 204.8664 220.4518 232.5626 239.4895 244.1617 245.8038 244.1617 239.4895 232.5626 220.4518 204.8664 187.5836 172.6306 166.4923 
124.3247 134.0362 156.5977 181.1584 201.6121 214.6280 226.8474 235.9874 239.4737 235.9874 226.8474 214.6280 201.6122 181.1584 156.5977 134.0362 124.3247 
84.5419 99.5946 130.5866 152.4124 169.8547 189.0494 208.6022 225.7329 233.7578 225.7329 208.6022 189.0494 169.8547 152.4124 130.5866 99.5947 84.5419 
43.8400 69.3446 91.2584 113.3949 136.9842 161.9913 187.9313 212.9194 229.7997 212.9194 187.9313 161.9913 136.9842 113.3950 91.2584 69.3446 43.8400 
0.0003 33.9321 65.5463 94.3401 121.7426 149.5568 178.0965 205.7505 228.3859 205.7506 178.0965 149.5568 121.7426 94.3401 65.5464 33.9321 0.0003 

43.8400 69.3446 91.2584 113.3950 136.9842 161.9913 187.9314 212.9194 229.7997 212.9194 187.9314 161.9913 136.9842 113.3950 91.2584 69.3446 43.8400 
73.8050 90.9174 123.9968 142.6289 161.4486 182.1068 203.4338 222.7928 232.6025 222.7928 203.4339 182.1068 161.4486 142.6289 123.9969 90.9174 73.8050 
109.6586 120.9954 146.5412 173.3676 193.3107 207.9723 222.1435 233.2905 237.7417 233.2905 222.1435 207.9723 193.3107 173.3676 146.5413 120.9954 109.6586 
149.1634 156.6271 174.5780 194.9852 213.0206 227.4833 236.0794 241.9985 244.1538 241.9985 236.0794 227.4833 213.0206 194.9853 174.5780 156.6271 149.1634 
190.9824 195.4615 206.5697 219.8016 232.1936 241.4890 246.3259 249.4990 250.5962 249.4990 246.3259 241.4890 232.1937 219.8016 206.5697 195.4615 190.9824 
227.7818 230.0672 235.8972 243.2124 248.0285 251.1731 253.7449 255.3643 255.9051 255.3643 253.7449 251.1731 248.0285 243.2124 235.8972 230.0672 227.7818 
250.9453 251.3270 252.4102 253.9195 255.5722 257.1349 258.3788 259.1435 259.3946 259.1435 258.3788 257.1349 255.5722 253.9195 252.4102 251.3270 250.9453 
256.3764 256.6235 257.2744 258.1327 259.0290 259.8488 260.4916 260.8894 261.0221 260.8894 260.4916 259.8488 259.0290 258.1327 257.2744 256.6235 256.3764 
256.3764 256.6235 257.2744 258.1326 259.0290 259.8488 260.4916 260.8894 261.0221 260.8894 260.4916 259.8488 259.0290 258.1326 257.2744 256.6235 256.3764 
250.9453 251.3270 252.4103 253.9196 255.5722 257.1349 258.3788 259.1435 259.3946 259.1435 258.3788 257.1349 255.5722 253.9196 252.4103 251.3270 250.9453 
227.7821 230.0675 235.8974 243.2126 248.0286 251.1731 253.7449 255.3643 255.9052 255.3643 253.7449 251.1731 248.0286 243.2126 235.8974 230.0675 227.7821 
190.9822 195.4612 206.5695 219.8014 232.1935 241.4889 246.3259 249.4990 250.5962 249.4990 246.3259 241.4889 232.1935 219.8014 206.5695 195.4612 190.9822 
149.1632 156.6269 174.5778 194.9851 213.0205 227.4832 236.0793 241.9984 244.1538 241.9984 236.0793 227.4832 213.0205 194.9851 174.5778 156.6269 149.1632 
109.6583 120.9952 146.5411 173.3675 193.3105 207.9722 222.1434 233.2905 237.7416 233.2905 222.1434 207.9722 193.3105 173.3675 146.5411 120.9952 109.6583 
73.8053 90.9176 123.9970 142.6292 161.4488 182.1070 203.4340 222.7929 232.6026 222.7929 203.4340 182.1070 161.4488 142.6292 123.9970 90.9176 73.8053 
43.8402 69.3447 91.2585 113.3951 136.9843 161.9914 187.9314 212.9194 229.7997 212.9195 187.9314 161.9914 136.9843 113.3951 91.2586 69.3448 43.8402 
43.8402 69.3447 91.2585 113.3951 136.9843 161.9914 187.9314 212.9194 229.7997 212.9194 187.9314 161.9914 136.9843 113.3951 91.2585 69.3447 43.8402 

84.5420 99.5947 130.5866 152.4125 169.8547 189.0495 208.6023 225.7330 233.7578 225.7330 208.6023 189.0495 169.8548 152.4125 130.5867 99.5947 84.5420 
109.6587 120.9955 146.5413 173.3677 193.3108 207.9725 222.1436 233.2906 237.7417 233.2906 222.1436 207.9725 193.3108 173.3677 146.5414 120.9956 109.6587 
142.6223 150.6394 169.8190 191.5012 210.5494 225.9496 235.5177 241.8283 244.1850 241.8283 235.5177 225.9496 210.5494 191.5012 169.8190 150.6394 142.6223 
181.0807 186.2102 198.9106 214.0011 228.0145 239.9172 246.5332 250.2884 251.6403 250.2884 246.5332 239.9172 228.0145 214.0011 198.9106 186.2102 181.0807 
218.3227 221.1192 228.2397 237.1734 246.1065 252.2160 255.6072 257.8359 258.6053 257.8359 255.6072 252.2160 246.1065 237.1734 228.2397 221.1192 218.3227 
245.8684 247.1471 250.5316 254.9830 257.8936 260.2778 262.2779 263.5626 263.9955 263.5626 262.2779 260.2778 257.8936 254.9830 250.5316 247.1471 245.8684 
259.6710 259.9499 260.8354 262.1176 263.5172 264.8761 266.0757 266.9347 267.2506 266.9347 266.0757 264.8761 263.5172 262.1176 260.8354 259.9499 259.6710 
262.2428 262.5058 263.2358 264.2372 265.2718 266.2288 267.1504 267.9631 268.3140 267.9631 267.1504 266.2288 265.2718 264.2372 263.2359 262.5058 262.2428 
259.6710 259.9499 260.8354 262.1176 263.5172 264.8761 266.0757 266.9347 267.2506 266.9347 266.0757 264.8761 263.5172 262.1177 260.8354 259.9499 259.6710 
245.8683 247.1469 250.5315 254.9830 257.8935 260.2778 262.2779 263.5625 263.9955 263.5625 262.2779 260.2778 257.8935 254.9830 250.5315 247.1469 245.8683 
218.3225 221.1190 228.2396 237.1732 246.1064 252.2159 255.6071 257.8358 258.6053 257.8358 255.6071 252.2159 246.1064 237.1732 228.2396 221.1190 218.3225 
181.0810 186.2105 198.9108 214.0013 228.0146 239.9173 246.5333 250.2884 251.6403 250.2884 246.5333 239.9173 228.0146 214.0013 198.9108 186.2105 181.0810 
142.6226 150.6396 169.8192 191.5013 210.5495 225.9497 235.5178 241.8283 244.1850 241.8283 235.5178 225.9497 210.5495 191.5014 169.8192 150.6396 142.6226 
109.6586 120.9954 146.5412 173.3676 193.3107 207.9723 222.1435 233.2905 237.7417 233.2905 222.1435 207.9723 193.3107 173.3676 146.5412 120.9954 109.6586 
84.5419 99.5946 130.5866 152.4124 169.8546 189.0494 208.6022 225.7329 233.7578 225.7329 208.6022 189.0494 169.8546 152.4124 130.5866 99.5946 84.5419 
73.8052 90.9175 123.9969 142.6290 161.4487 182.1069 203.4339 222.7928 232.6025 222.7928 203.4339 182.1069 161.4487 142.6290 123.9969 90.9175 73.8052 
84.5418 99.5946 130.5865 152.4124 169.8546 189.0494 208.6022 225.7329 233.7578 225.7329 208.6022 189.0494 169.8546 152.4124 130.5866 99.5946 84.5418 

124.3245 134.0361 156.5975 181.1583 201.6120 214.6279 226.8474 235.9874 239.4736 235.9874 226.8474 214.6279 201.6121 181.1583 156.5976 134.0361 124.3245 
149.1633 156.6270 174.5779 194.9852 213.0205 227.4833 236.0794 241.9984 244.1538 241.9984 236.0794 227.4833 213.0205 194.9852 174.5779 156.6270 149.1633 
181.0809 186.2104 198.9107 214.0012 228.0146 239.9173 246.5333 250.2884 251.6403 250.2884 246.5333 239.9173 228.0146 214.0012 198.9108 186.2104 181.0809 
214.6903 217.6931 225.3434 234.9519 244.5558 253.2731 257.0161 259.5997 260.5213 259.5997 257.0161 253.2731 244.5558 234.9519 225.3434 217.6931 214.6903 
241.7093 243.2069 247.1804 252.5639 258.4621 263.5857 266.2633 268.0657 268.6970 268.0657 266.2633 263.5857 258.4621 252.5639 247.1804 243.2069 241.7093 
258.0747 258.7539 260.6183 263.2699 266.2824 269.2834 271.9301 273.8415 274.6436 273.8415 271.9301 269.2834 266.2824 263.2699 260.6183 258.7539 258.0747 
265.0567 265.3866 266.2816 267.4993 268.7816 270.0232 271.2500 272.3124 272.7624 272.3124 271.2500 270.0232 268.7816 267.4993 266.2816 265.3866 265.0567 
265.0567 265.3865 266.2816 267.4993 268.7816 270.0232 271.2500 272.3124 272.7624 272.3124 271.2500 270.0232 268.7816 267.4993 266.2816 265.3865 265.0567 
258.0748 258.7540 260.6184 263.2699 266.2825 269.2834 271.9301 273.8415 274.6435 273.8415 271.9301 269.2834 266.2825 263.2699 260.6184 258.7540 258.0748 
241.7095 243.2071 247.1806 252.5640 258.4622 263.5858 266.2634 268.0657 268.6970 268.0657 266.2634 263.5858 258.4622 252.5640 247.1806 243.2071 241.7095 
214.6901 217.6929 225.3433 234.9518 244.5557 253.2730 257.0160 259.5997 260.5213 259.5997 257.0160 253.2730 244.5557 234.9518 225.3433 217.6929 214.6901 
181.0807 186.2102 198.9106 214.0011 228.0145 239.9172 246.5332 250.2884 251.6403 250.2884 246.5332 239.9172 228.0145 214.0011 198.9106 186.2102 181.0807 
149.1631 156.6268 174.5778 194.9851 213.0205 227.4832 236.0793 241.9984 244.1537 241.9984 236.0793 227.4832 213.0205 194.9851 174.5778 156.6268 149.1631 
124.3247 134.0362 156.5977 181.1584 201.6122 214.6280 226.8474 235.9874 239.4737 235.9874 226.8474 214.6280 201.6122 181.1584 156.5977 134.0362 124.3247 
109.6586 120.9954 146.5412 173.3676 193.3107 207.9723 222.1435 233.2905 237.7417 233.2905 222.1435 207.9723 193.3107 173.3676 146.5413 120.9954 109.6586 
109.6586 120.9954 146.5412 173.3676 193.3107 207.9723 222.1435 233.2905 237.7417 233.2905 222.1435 207.9723 193.3107 173.3676 146.5413 120.9954 109.6586 
124.3247 134.0362 156.5976 181.1584 201.6121 214.6280 226.8474 235.9874 239.4737 235.9874 226.8474 214.6280 201.6121 181.1584 156.5977 134.0362 124.3247 

166.4922 172.6305 187.5835 204.8663 220.4517 232.5626 239.4895 244.1617 245.8037 244.1617 239.4895 232.5626 220.4517 204.8663 187.5835 172.6305 166.4922 
190.9820 195.4611 206.5694 219.8013 232.1934 241.4889 246.3258 249.4989 250.5961 249.4989 246.3258 241.4889 232.1935 219.8013 206.5694 195.4611 190.9820 
218.3226 221.1191 228.2397 237.1733 246.1065 252.2160 255.6071 257.8359 258.6053 257.8359 255.6071 252.2160 246.1065 237.1733 228.2397 221.1191 218.3226 
241.7094 243.2070 247.1805 252.5639 258.4622 263.5858 266.2634 268.0657 268.6970 268.0657 266.2634 263.5858 258.4622 252.5639 247.1805 243.2070 241.7094 
256.9324 257.6818 259.7394 262.6856 266.0849 269.5166 272.5211 274.6088 275.3628 274.6088 272.5211 269.5166 266.0849 262.6856 259.7394 257.6818 256.9324 
264.8577 265.2154 266.1918 267.5740 269.1603 270.7913 272.2805 273.3638 273.7659 273.3638 272.2805 270.7913 269.1603 267.5740 266.1918 265.2154 264.8577 
267.2569 267.4828 268.0847 268.9044 269.8354 270.8653 271.9505 272.8565 273.2198 272.8565 271.9505 270.8653 269.8354 268.9044 268.0847 267.4828 267.2569 
264.8577 265.2154 266.1919 267.5740 269.1603 270.7913 272.2805 273.3638 273.7659 273.3638 272.2805 270.7913 269.1603 267.5740 266.1919 265.2154 264.8577 
256.9323 257.6817 259.7393 262.6855 266.0849 269.5165 272.5211 274.6088 275.3628 274.6088 272.5211 269.5166 266.0849 262.6855 259.7393 257.6817 256.9323 
241.7093 243.2069 247.1804 252.5639 258.4621 263.5857 266.2633 268.0657 268.6970 268.0657 266.2633 263.5857 258.4621 252.5639 247.1804 243.2069 241.7093 
218.3228 221.1193 228.2398 237.1734 246.1066 252.2160 255.6072 257.8359 258.6054 257.8359 255.6072 252.2161 246.1066 237.1735 228.2398 221.1193 218.3228 
190.9822 195.4613 206.5696 219.8015 232.1935 241.4889 246.3259 249.4990 250.5962 249.4990 246.3259 241.4890 232.1936 219.8015 206.5696 195.4613 190.9822 
166.4920 172.6304 187.5834 204.8662 220.4517 232.5625 239.4895 244.1617 245.8037 244.1617 239.4895 232.5625 220.4517 204.8663 187.5834 172.6304 166.4920 
149.1632 156.6269 174.5779 194.9851 213.0205 227.4833 236.0794 241.9984 244.1538 241.9984 236.0794 227.4833 213.0205 194.9851 174.5779 156.6270 149.1632 
142.6225 150.6395 169.8191 191.5013 210.5495 225.9497 235.5178 241.8283 244.1850 241.8283 235.5178 225.9497 210.5495 191.5013 169.8191 150.6395 142.6225 
149.1632 156.6269 174.5779 194.9851 213.0205 227.4832 236.0794 241.9984 244.1538 241.9984 236.0794 227.4833 213.0205 194.9851 174.5779 156.6269 149.1632 
166.4920 172.6304 187.5834 204.8662 220.4516 232.5625 239.4895 244.1617 245.8037 244.1617 239.4895 232.5625 220.4517 204.8662 187.5834 172.6304 166.4920 

207.7751 211.2296 219.8634 230.3017 240.2662 244.7047 248.3780 250.7146 251.5012 250.7146 248.3780 244.7047 240.2662 230.3017 219.8634 211.2296 207.7751 
227.7820 230.0674 235.8973 243.2126 248.0285 251.1731 253.7449 255.3643 255.9052 255.3643 253.7449 251.1731 248.0286 243.2126 235.8973 230.0674 227.7820 
245.8684 247.1471 250.5316 254.9831 257.8936 260.2779 262.2779 263.5626 263.9956 263.5626 262.2779 260.2779 257.8936 254.9831 250.5316 247.1471 245.8684 
258.0747 258.7538 260.6183 263.2698 266.2824 269.2833 271.9301 273.8415 274.6436 273.8415 271.9301 269.2833 266.2824 263.2698 260.6183 258.7538 258.0747 
264.8577 265.2154 266.1919 267.5740 269.1603 270.7913 272.2805 273.3638 273.7659 273.3638 272.2805 270.7913 269.1603 267.5740 266.1919 265.2154 264.8577 
267.8741 268.0717 268.5971 269.3240 270.1955 271.2230 272.3291 273.2371 273.5940 273.2371 272.3291 271.2230 270.1955 269.3240 268.5971 268.0717 267.8741 
267.8741 268.0717 268.5971 269.3240 270.1955 271.2230 272.3291 273.2371 273.5940 273.2371 272.3291 271.2230 270.1955 269.3240 268.5971 268.0717 267.8741 
264.8577 265.2154 266.1919 267.5740 269.1603 270.7913 272.2805 273.3638 273.7659 273.3638 272.2805 270.7913 269.1603 267.5740 266.1919 265.2154 264.8577 
258.0747 258.7539 260.6183 263.2699 266.2824 269.2834 271.9301 273.8415 274.6435 273.8415 271.9301 269.2834 266.2824 263.2699 260.6183 258.7539 258.0747 
245.8683 247.1470 250.5315 254.9830 257.8935 260.2778 262.2779 263.5625 263.9955 263.5625 262.2779 260.2778 257.8935 254.9830 250.5315 247.1470 245.8683 
227.7819 230.0673 235.8972 243.2125 248.0285 251.1731 253.7449 255.3643 255.9051 255.3643 253.7449 251.1731 248.0285 243.2125 235.8972 230.0673 227.7819 
207.7749 211.2295 219.8633 230.3016 240.2661 244.7047 248.3780 250.7145 251.5012 250.7145 248.3780 244.7047 240.2661 230.3016 219.8633 211.2295 207.7749 
190.9822 195.4613 206.5696 219.8015 232.1935 241.4889 246.3259 249.4990 250.5962 249.4990 246.3259 241.4889 232.1935 219.8015 206.5696 195.4613 190.9822 
181.0808 186.2103 198.9107 214.0011 228.0145 239.9173 246.5332 250.2884 251.6403 250.2884 246.5332 239.9173 228.0145 214.0012 198.9107 186.2103 181.0808 
181.0808 186.2103 198.9107 214.0011 228.0145 239.9173 246.5332 250.2884 251.6403 250.2884 246.5332 239.9173 228.0145 214.0012 198.9107 186.2103 181.0808 
190.9822 195.4613 206.5696 219.8014 232.1935 241.4889 246.3259 249.4990 250.5962 249.4990 246.3259 241.4889 232.1936 219.8015 206.5696 195.4613 190.9822 
207.7749 211.2294 219.8633 230.3016 240.2661 244.7047 248.3780 250.7145 251.5012 250.7145 248.3780 244.7047 240.2661 230.3016 219.8633 211.2295 207.7749 

240.2345 241.8616 245.9673 248.0311 250.3256 252.5082 254.2363 255.2900 255.6343 255.2900 254.2363 252.5082 250.3256 248.0311 245.9673 241.8616 240.2345 
250.9453 251.3270 252.4102 253.9195 255.5722 257.1349 258.3788 259.1434 259.3946 259.1434 258.3788 257.1349 255.5722 253.9195 252.4102 251.3270 250.9453 
259.6710 259.9499 260.8355 262.1177 263.5172 264.8761 266.0757 266.9348 267.2506 266.9348 266.0757 264.8761 263.5172 262.1177 260.8355 259.9499 259.6710 
265.0567 265.3866 266.2817 267.4993 268.7817 270.0232 271.2500 272.3124 272.7624 272.3124 271.2500 270.0232 268.7817 267.4993 266.2817 265.3866 265.0567 
267.2569 267.4828 268.0847 268.9044 269.8354 270.8653 271.9505 272.8565 273.2198 272.8565 271.9505 270.8653 269.8354 268.9044 268.0847 267.4828 267.2569 
267.8741 268.0717 268.5971 269.3240 270.1955 271.2230 272.3291 273.2371 273.5940 273.2371 272.3291 271.2230 270.1955 269.3240 268.5971 268.0717 267.8741 
267.2569 267.4828 268.0847 268.9044 269.8354 270.8653 271.9505 272.8565 273.2198 272.8565 271.9505 270.8653 269.8354 268.9044 268.0847 267.4828 267.2569 
265.0567 265.3865 266.2816 267.4993 268.7816 270.0232 271.2500 272.3124 272.7624 272.3124 271.2500 270.0232 268.7816 267.4993 266.2816 265.3865 265.0567 
259.6710 259.9499 260.8354 262.1176 263.5172 264.8760 266.0756 266.9347 267.2505 266.9347 266.0756 264.8760 263.5172 262.1176 260.8354 259.9499 259.6710 
250.9453 251.3270 252.4103 253.9196 255.5722 257.1349 258.3788 259.1435 259.3946 259.1435 258.3789 257.1349 255.5722 253.9196 252.4103 251.3270 250.9453 
240.2346 241.8617 245.9673 248.0311 250.3257 252.5082 254.2363 255.2900 255.6343 255.2900 254.2363 252.5082 250.3257 248.0311 245.9673 241.8617 240.2346 
227.7820 230.0674 235.8973 243.2125 248.0285 251.1731 253.7449 255.3643 255.9052 255.3643 253.7449 251.1731 248.0285 243.2125 235.8973 230.0674 227.7820 
218.3226 221.1191 228.2397 237.1733 246.1065 252.2160 255.6072 257.8359 258.6053 257.8359 255.6072 252.2160 246.1065 237.1733 228.2397 221.1192 218.3226 
214.6901 217.6929 225.3432 234.9518 244.5557 253.2730 257.0160 259.5997 260.5213 259.5997 257.0160 253.2730 244.5557 234.9518 225.3433 217.6929 214.6901 
218.3226 221.1191 228.2397 237.1733 246.1065 252.2160 255.6072 257.8359 258.6053 257.8359 255.6072 252.2160 246.1065 237.1733 228.2397 221.1191 218.3226 
227.7820 230.0673 235.8973 243.2125 248.0285 251.1731 253.7449 255.3643 255.9052 255.3643 253.7449 251.1731 248.0285 243.2125 235.8973 230.0673 227.7820 
240.2346 241.8617 245.9673 248.0311 250.3257 252.5082 254.2363 255.2900 255.6343 255.2900 254.2363 252.5082 250.3257 248.0311 245.9673 241.8617 240.2346 

252.5255 252.8288 253.6169 254.6473 255.7232 256.6937 257.4123 257.8106 257.9302 257.8106 257.4123 256.6937 255.7232 254.6473 253.6169 252.8288 252.5255 
256.3764 256.6236 257.2745 258.1327 259.0291 259.8488 260.4916 260.8894 261.0221 260.8894 260.4916 259.8489 259.0291 258.1327 257.2745 256.6236 256.3764 
262.2428 262.5058 263.2358 264.2372 265.2717 266.2287 267.1503 267.9630 268.3139 267.9630 267.1503 266.2287 265.2717 264.2372 263.2358 262.5058 262.2428 
265.0567 265.3865 266.2816 267.4993 268.7816 270.0232 271.2500 272.3124 272.7624 272.3124 271.2500 270.0232 268.7816 267.4993 266.2816 265.3865 265.0567 
264.8577 265.2154 266.1919 267.5740 269.1603 270.7913 272.2805 273.3638 273.7659 273.3638 272.2805 270.7913 269.1603 267.5740 266.1919 265.2154 264.8577 
264.8577 265.2154 266.1919 267.5740 269.1603 270.7913 272.2805 273.3638 273.7659 273.3638 272.2805 270.7913 269.1603 267.5740 266.1919 265.2154 264.8577 
265.0567 265.3865 266.2816 267.4993 268.7816 270.0232 271.2500 272.3124 272.7624 272.3124 271.2500 270.0232 268.7817 267.4993 266.2816 265.3865 265.0567 
262.2428 262.5058 263.2359 264.2373 265.2718 266.2288 267.1504 267.9631 268.3140 267.9631 267.1504 266.2288 265.2718 264.2373 263.2359 262.5058 262.2428 
256.3764 256.6235 257.2744 258.1327 259.0290 259.8488 260.4916 260.8894 261.0221 260.8894 260.4916 259.8488 259.0290 258.1327 257.2744 256.6235 256.3764 
252.5255 252.8288 253.6169 254.6472 255.7232 256.6937 257.4123 257.8106 257.9302 257.8106 257.4123 256.6937 255.7232 254.6472 253.6169 252.8288 252.5255 
250.9453 251.3270 252.4103 253.9195 255.5722 257.1349 258.3788 259.1435 259.3946 259.1435 258.3788 257.1349 255.5722 253.9195 252.4103 251.3270 250.9453 
245.8684 247.1470 250.5315 254.9830 257.8935 260.2778 262.2778 263.5625 263.9955 263.5625 262.2778 260.2778 257.8935 254.9830 250.5315 247.1470 245.8684 
241.7094 243.2070 247.1805 252.5639 258.4622 263.5858 266.2633 268.0657 268.6970 268.0657 266.2633 263.5858 258.4622 252.5639 247.1805 243.2070 241.7094 
241.7094 243.2070 247.1805 252.5639 258.4622 263.5858 266.2633 268.0657 268.6970 268.0657 266.2633 263.5858 258.4622 252.5639 247.1805 243.2070 241.7094 
245.8684 247.1470 250.5315 254.9830 257.8935 260.2778 262.2779 263.5625 263.9955 263.5625 262.2779 260.2778 257.8935 254.9830 250.5315 247.1470 245.8684 
250.9453 251.3270 252.4103 253.9195 255.5722 257.1349 258.3788 259.1435 259.3946 259.1435 258.3788 257.1349 255.5722 253.9195 252.4103 251.3270 250.9453 
252.5255 252.8288 253.6169 254.6472 255.7232 256.6937 257.4123 257.8106 257.9302 257.8106 257.4123 256.6937 255.7232 254.6472 253.6169 252.8288 252.5255 

255.2935 255.5008 256.0270 256.6929 257.3728 257.9727 258.3870 258.5831 258.6318 258.5831 258.3870 257.9727 257.3728 256.6929 256.0270 255.5008 255.2935 
256.3764 256.6235 257.2744 258.1327 259.0290 259.8488 260.4916 260.8894 261.0221 260.8894 260.4916 259.8488 259.0290 258.1327 257.2744 256.6235 256.3764 
259.6710 259.9499 260.8355 262.1177 263.5172 264.8761 266.0757 266.9348 267.2506 266.9348 266.0757 264.8761 263.5172 262.1177 260.8355 259.9499 259.6710 
258.0747 258.7539 260.6183 263.2699 266.2824 269.2834 271.9301 273.8415 274.6435 273.8415 271.9301 269.2834 266.2824 263.2699 260.6183 258.7539 258.0747 
256.9324 257.6817 259.7393 262.6855 266.0849 269.5166 272.5211 274.6088 275.3628 274.6088 272.5211 269.5166 266.0849 262.6855 259.7393 257.6817 256.9324 
258.0747 258.7539 260.6183 263.2699 266.2824 269.2834 271.9301 273.8415 274.6436 273.8415 271.9301 269.2834 266.2824 263.2699 260.6183 258.7539 258.0747 
259.6710 259.9499 260.8354 262.1176 263.5172 264.8761 266.0757 266.9347 267.2506 266.9347 266.0757 264.8761 263.5172 262.1176 260.8354 259.9499 259.6710 
256.3764 256.6235 257.2744 258.1326 259.0290 259.8488 260.4916 260.8894 261.0221 260.8894 260.4916 259.8488 259.0290 258.1326 257.2744 256.6235 256.3764 
255.2935 255.5008 256.0270 256.6929 257.3728 257.9727 258.3870 258.5831 258.6318 258.5831 258.3870 257.9727 257.3728 256.6929 256.0270 255.5008 255.2935 
256.3764 256.6235 257.2744 258.1327 259.0290 259.8488 260.4916 260.8894 261.0221 260.8894 260.4916 259.8488 259.0290 258.1327 257.2744 256.6235 256.3764 
259.6710 259.9499 260.8354 262.1177 263.5172 264.8761 266.0757 266.9348 267.2506 266.9348 266.0757 264.8761 263.5172 262.1177 260.8354 259.9499 259.6710 
258.0747 258.7539 260.6183 263.2699 266.2824 269.2834 271.9301 273.8415 274.6436 273.8415 271.9301 269.2834 266.2824 263.2699 260.6183 258.7539 258.0747 
256.9324 257.6817 259.7393 262.6855 266.0849 269.5166 272.5211 274.6088 275.3628 274.6088 272.5211 269.5166 266.0849 262.6855 259.7393 257.6817 256.9324 
258.0747 258.7539 260.6183 263.2699 266.2824 269.2834 271.9301 273.8415 274.6436 273.8415 271.9301 269.2834 266.2824 263.2699 260.6183 258.7539 258.0747 
259.6710 259.9499 260.8354 262.1177 263.5172 264.8761 266.0757 266.9348 267.2506 266.9348 266.0757 264.8761 263.5172 262.1177 260.8354 259.9499 259.6710 
256.3764 256.6235 257.2744 258.1327 259.0290 259.8488 260.4916 260.8894 261.0221 260.8894 260.4916 259.8488 259.0290 258.1327 257.2744 256.6235 256.3764 
255.2935 255.5008 256.0270 256.6929 257.3728 257.9727 258.3870 258.5831 258.6318 258.5831 258.3870 257.9727 257.3728 256.6929 256.0270 255.5008 255.2935 

252.5255 252.8288 253.6169 254.6472 255.7232 256.6937 257.4123 257.8106 257.9302 257.8106 257.4123 256.6937 255.7232 254.6472 253.6169 252.8288 252.5255 
250.9453 251.3270 252.4103 253.9195 255.5722 257.1349 258.3788 259.1434 259.3946 259.1434 258.3788 257.1349 255.5722 253.9195 252.4103 251.3270 250.9453 
245.8684 247.1470 250.5315 254.9830 257.8935 260.2778 262.2779 263.5625 263.9955 263.5625 262.2779 260.2778 257.8935 254.9830 250.5315 247.1470 245.8684 
241.7094 243.2070 247.1805 252.5639 258.4622 263.5858 266.2634 268.0657 268.6970 268.0657 266.2634 263.5858 258.4622 252.5639 247.1805 243.2070 241.7094 
241.7094 243.2070 247.1805 252.5639 258.4622 263.5858 266.2633 268.0657 268.6970 268.0657 266.2633 263.5858 258.4622 252.5639 247.1805 243.2070 241.7094 
245.8683 247.1470 250.5315 254.9830 257.8935 260.2778 262.2779 263.5626 263.9956 263.5626 262.2779 260.2778 257.8935 254.9830 250.5315 247.1470 245.8683 
250.9453 251.3270 252.4103 253.9195 255.5722 257.1349 258.3788 259.1435 259.3946 259.1435 258.3788 257.1349 255.5722 253.9195 252.4103 251.3270 250.9453 
252.5255 252.8288 253.6169 254.6472 255.7232 256.6937 257.4123 257.8106 257.9302 257.8106 257.4123 256.6937 255.7232 254.6472 253.6169 252.8288 252.5255 
256.3764 256.6236 257.2745 258.1327 259.0291 259.8488 260.4916 260.8894 261.0221 260.8894 260.4916 259.8488 259.0291 258.1327 257.2745 256.6236 256.3764 
262.2428 262.5058 263.2359 264.2373 265.2718 266.2288 267.1504 267.9631 268.3140 267.9631 267.1504 266.2288 265.2718 264.2373 263.2359 262.5058 262.2428 
265.0567 265.3865 266.2816 267.4993 268.7816 270.0232 271.2500 272.3124 272.7624 272.3124 271.2500 270.0232 268.7816 267.4993 266.2816 265.3865 265.0567 
264.8577 265.2154 266.1919 267.5740 269.1603 270.7913 272.2805 273.3638 273.7659 273.3638 272.2805 270.7913 269.1603 267.5740 266.1919 265.2154 264.8577 
264.8577 265.2154 266.1919 267.5740 269.1603 270.7913 272.2805 273.3638 273.7659 273.3638 272.2805 270.7913 269.1603 267.5740 266.1919 265.2154 264.8577 
265.0567 265.3865 266.2816 267.4993 268.7816 270.0232 271.2500 272.3124 272.7624 272.3124 271.2500 270.0232 268.7816 267.4993 266.2816 265.3865 265.0567 
262.2428 262.5058 263.2359 264.2373 265.2718 266.2288 267.1504 267.9631 268.3140 267.9631 267.1504 266.2288 265.2718 264.2373 263.2359 262.5058 262.2428 
256.3764 256.6236 257.2745 258.1327 259.0291 259.8488 260.4916 260.8894 261.0221 260.8894 260.4916 259.8488 259.0291 258.1327 257.2745 256.6236 256.3764 
252.5255 252.8288 253.6169 254.6472 255.7232 256.6937 257.4123 257.8106 257.9302 257.8106 257.4123 256.6937 255.7232 254.6472 253.6169 252.8288 252.5255 

240.2346 241.8616 245.9673 248.0311 250.3257 252.5082 254.2363 255.2900 255.6343 255.2900 254.2363 252.5082 250.3257 248.0311 245.9673 241.8616 240.2346 
227.7819 230.0673 235.8973 243.2125 248.0285 251.1731 253.7449 255.3643 255.9052 255.3643 253.7449 251.1731 248.0285 243.2125 235.8973 230.0673 227.7819 
218.3227 221.1192 228.2397 237.1734 246.1065 252.2160 255.6071 257.8359 258.6053 257.8359 255.6071 252.2160 246.1065 237.1734 228.2397 221.1192 218.3227 
214.6901 217.6929 225.3433 234.9518 244.5557 253.2730 257.0160 259.5997 260.5213 259.5997 257.0160 253.2730 244.5557 234.9518 225.3433 217.6929 214.6901 
218.3226 221.1192 228.2397 237.1733 246.1065 252.2160 255.6072 257.8359 258.6053 257.8359 255.6072 252.2160 246.1065 237.1733 228.2397 221.1192 218.3226 
227.7820 230.0674 235.8973 243.2125 248.0285 251.1731 253.7449 255.3643 255.9052 255.3643 253.7449 251.1731 248.0285 243.2126 235.8973 230.0674 227.7820 
240.2346 241.8617 245.9673 248.0311 250.3257 252.5082 254.2363 255.2900 255.6343 255.2900 254.2363 252.5082 250.3257 248.0311 245.9673 241.8617 240.2346 
250.9453 251.3269 252.4102 253.9195 255.5721 257.1348 258.3788 259.1434 259.3945 259.1434 258.3788 257.1348 255.5721 253.9195 252.4102 251.3269 250.9453 
259.6710 259.9499 260.8354 262.1176 263.5172 264.8761 266.0756 266.9347 267.2506 266.9347 266.0756 264.8761 263.5172 262.1176 260.8354 259.9499 259.6710 
265.0567 265.3865 266.2816 267.4993 268.7816 270.0232 271.2500 272.3124 272.7624 272.3124 271.2500 270.0232 268.7816 267.4993 266.2816 265.3865 265.0567 
267.2569 267.4828 268.0847 268.9044 269.8354 270.8653 271.9505 272.8565 273.2198 272.8565 271.9505 270.8653 269.8354 268.9044 268.0847 267.4828 267.2569 
267.8741 268.0717 268.5971 269.3240 270.1955 271.2230 272.3291 273.2371 273.5940 273.2371 272.3291 271.2230 270.1955 269.3240 268.5971 268.0717 267.8741 
267.2569 267.4828 268.0847 268.9044 269.8354 270.8653 271.9505 272.8565 273.2198 272.8565 271.9505 270.8653 269.8354 268.9044 268.0847 267.4828 267.2569 
265.0567 265.3866 266.2816 267.4993 268.7816 270.0232 271.2500 272.3124 272.7624 272.3124 271.2500 270.0232 268.7817 267.4993 266.2816 265.3866 265.0567 
259.6710 259.9499 260.8354 262.1176 263.5172 264.8761 266.0757 266.9347 267.2506 266.9347 266.0757 264.8761 263.5172 262.1176 260.8354 259.9499 259.6710 
250.9453 251.3269 252.4102 253.9195 255.5721 257.1348 258.3788 259.1434 259.3945 259.1434 258.3788 257.1348 255.5721 253.9195 252.4102 251.3269 250.9453 
240.2347 241.8617 245.9674 248.0311 250.3257 252.5082 254.2363 255.2900 255.6343 255.2900 254.2363 252.5082 250.3257 248.0311 245.9674 241.8617 240.2347 

207.7751 211.2296 219.8634 230.3017 240.2662 244.7047 248.3780 250.7146 251.5012 250.7146 248.3780 244.7047 240.2662 230.3017 219.8634 211.2297 207.7751 
190.9822 195.4612 206.5695 219.8014 232.1935 241.4889 246.3259 249.4990 250.5962 249.4990 246.3259 241.4889 232.1935 219.8014 206.5695 195.4612 190.9822 
181.0808 186.2103 198.9107 214.0011 228.0145 239.9173 246.5332 250.2884 251.6403 250.2884 246.5332 239.9173 228.0145 214.0011 198.9107 186.2103 181.0808 
181.0808 186.2103 198.9107 214.0012 228.0145 239.9173 246.5332 250.2884 251.6403 250.2884 246.5332 239.9173 228.0145 214.0012 198.9107 186.2103 181.0808 
190.9821 195.4611 206.5695 219.8014 232.1935 241.4889 246.3258 249.4990 250.5962 249.4990 246.3258 241.4889 232.1935 219.8014 206.5695 195.4611 190.9821 