ANIMSTEPS   9
CRYSTAL
PRIMVEC
    3.175063252    0.000000000    0.000000000
   -1.587531626    2.749685434    0.000000000
    0.000000000    0.000000000    3.478437053
PRIMCOORD  1
      3   1
   Mg     0.00000   0.00000   0.00000   0.00747   0.05223  -0.02346
   B      1.58753   0.91656   1.73922   0.00747   0.05223  -0.02346
   B      0.00000   1.83312   1.73922   0.00747   0.05223  -0.02346
PRIMCOORD  2
      3   1
   Mg     0.00000   0.00000   0.00000   0.00402   0.02312   0.05275
   B      1.58753   0.91656   1.73922   0.00402   0.02312   0.05275
   B      0.00000   1.83312   1.73922   0.00402   0.02312   0.05275
PRIMCOORD  3
      3   1
   Mg     0.00000   0.00000   0.00000   0.05711  -0.00845  -0.00065
   B      1.58753   0.91656   1.73922   0.05711  -0.00845  -0.00065
   B      0.00000   1.83312   1.73922   0.05711  -0.00845  -0.00065
PRIMCOORD  4
      3   1
   Mg     0.00000   0.00000   0.00000  -0.00789   0.05333   0.00000
   B      1.58753   0.91656   1.73922   0.00872  -0.05891   0.00000
   B      0.00000   1.83312   1.73922   0.00872  -0.05891   0.00000
PRIMCOORD  5
      3   1
   Mg     0.00000   0.00000   0.00000  -0.05333  -0.00789   0.00000
   B      1.58753   0.91656   1.73922   0.05891   0.00872   0.00000
   B      0.00000   1.83312   1.73922   0.05891   0.00872   0.00000
PRIMCOORD  6
      3   1
   Mg     0.00000   0.00000   0.00000   0.00000   0.00000  -0.05391
   B      1.58753   0.91656   1.73922   0.00000   0.00000   0.05956
   B      0.00000   1.83312   1.73922   0.00000   0.00000   0.05956
PRIMCOORD  7
      3   1
   Mg     0.00000   0.00000   0.00000   0.00000   0.00000   0.00000
   B      1.58753   0.91656   1.73922   0.06941  -0.01351   0.00000
   B      0.00000   1.83312   1.73922  -0.06941   0.01351   0.00000
PRIMCOORD  8
      3   1
   Mg     0.00000   0.00000   0.00000   0.00000   0.00000   0.00000
   B      1.58753   0.91656   1.73922  -0.01351  -0.06941   0.00000
   B      0.00000   1.83312   1.73922   0.01351   0.06941   0.00000
PRIMCOORD  9
      3   1
   Mg     0.00000   0.00000   0.00000   0.00000   0.00000   0.00000
   B      1.58753   0.91656   1.73922   0.00000   0.00000  -0.07071
   B      0.00000   1.83312   1.73922   0.00000   0.00000   0.07071
