[Molden Format]
[FREQ]
    0.00
    0.00
    0.00
  314.23
  314.23
  370.17
  499.00
  499.00
  660.83
[FR-COORD]
   Mg          0.00000        0.00000        0.00000
   B           3.00000        1.73205        3.28665
   B           0.00000        3.46410        3.28665
[FR-NORM-COORD]
 vibration     1
   0.07466   0.52225  -0.23455
   0.07466   0.52225  -0.23455
   0.07466   0.52225  -0.23455
 vibration     2
   0.04021   0.23117   0.52752
   0.04021   0.23117   0.52752
   0.04021   0.23117   0.52752
 vibration     3
   0.57109  -0.08455  -0.00648
   0.57109  -0.08455  -0.00648
   0.57109  -0.08455  -0.00648
 vibration     4
  -0.07894   0.53327   0.00000
   0.08721  -0.58914   0.00000
   0.08721  -0.58914   0.00000
 vibration     5
  -0.53327  -0.07894   0.00000
   0.58914   0.08721   0.00000
   0.58914   0.08721   0.00000
 vibration     6
   0.00000   0.00000  -0.53908
   0.00000   0.00000   0.59556
   0.00000   0.00000   0.59556
 vibration     7
   0.00000   0.00000   0.00000
   0.69409  -0.13506   0.00000
  -0.69409   0.13506   0.00000
 vibration     8
   0.00000   0.00000   0.00000
  -0.13506  -0.69409   0.00000
   0.13506   0.69409   0.00000
 vibration     9
   0.00000   0.00000   0.00000
   0.00000   0.00000  -0.70711
   0.00000   0.00000   0.70711
