 BEGIN_INFO
   #
   # this is a Band-XCRYSDEN-Structure-File
   # aimed at Visualization of Fermi Surface
   #
   # Case:   mgb2                                                                            
   #
 Fermi Energy:          7.8097
 END_INFO
 BEGIN_BLOCK_BANDGRID_3D
 band_energies
 BANDGRID_3D_BANDS
    6
   17   17   17
  0.000000  0.000000  0.000000
  1.000000  0.577350 -0.000000
  0.000000  1.154701  0.000000
  0.000000 -0.000000  0.879629
BAND:   3
    8.1824    8.1967    8.2379    8.3010    8.3776    8.4569
    8.5264    8.5740    8.5910    8.5740    8.5264    8.4569
    8.3776    8.3010    8.2379    8.1967    8.1824    7.8242
    7.8397    7.8839    7.9514    8.0337    8.1194    8.1950
    8.2471    8.2657    8.2471    8.1950    8.1194    8.0337
    7.9514    7.8839    7.8397    7.8242    6.9057    6.9244
    6.9761    7.0542    7.1498    7.2503    7.3400    7.4025
    7.4250    7.4025    7.3400    7.2503    7.1498    7.0542
    6.9761    6.9244    6.9057    5.6997    5.7256    5.7847
    5.8732    5.9828    6.0997    6.2056    6.2803    6.3074
    6.2803    6.2056    6.0997    5.9828    5.8732    5.7847
    5.7256    5.6997    5.9303    5.6501    4.9981    4.6143
    4.7169    4.8459    4.9663    5.0526    5.0842    5.0526
    4.9663    4.8459    4.7169    4.6143    4.9981    5.6501
    5.9303    6.1695    6.1811    5.5752    4.7920    4.0242
    3.6227    3.7249    3.8181    3.8531    3.8181    3.7249
    3.6227    4.0242    4.7920    5.5752    6.1811    6.1695
    5.8561    5.8674    5.8999    5.4845    4.7164    4.0207
    3.4520    3.0654    2.9209    3.0654    3.4520    4.0207
    4.7164    5.4845    5.8999    5.8674    5.8561    5.6633
    5.6744    5.7064    5.7551    5.4387    4.7602    4.2049
    3.8309    3.6968    3.8309    4.2050    4.7602    5.4387
    5.7551    5.7064    5.6744    5.6633    5.5983    5.6093
    5.6411    5.6896    5.7482    5.1645    4.6196    4.2526
    4.1212    4.2526    4.6196    5.1645    5.7482    5.6896
    5.6411    5.6093    5.5983    5.6633    5.6744    5.7064
    5.7551    5.4387    4.7602    4.2049    3.8309    3.6968
    3.8309    4.2049    4.7602    5.4387    5.7551    5.7064
    5.6744    5.6633    5.8561    5.8674    5.8999    5.4845
    4.7164    4.0207    3.4520    3.0654    2.9209    3.0654
    3.4520    4.0207    4.7164    5.4845    5.8999    5.8674
    5.8561    6.1695    6.1811    5.5752    4.7920    4.0242
    3.6227    3.7249    3.8181    3.8531    3.8181    3.7249
    3.6227    4.0242    4.7920    5.5752    6.1811    6.1695
    5.9303    5.6501    4.9981    4.6144    4.7169    4.8459
    4.9663    5.0527    5.0842    5.0527    4.9663    4.8459
    4.7169    4.6144    4.9981    5.6501    5.9303    5.6997
    5.7256    5.7847    5.8732    5.9828    6.0997    6.2056
    6.2803    6.3074    6.2803    6.2056    6.0997    5.9828
    5.8732    5.7847    5.7256    5.6997    6.9057    6.9244
    6.9761    7.0542    7.1498    7.2503    7.3400    7.4025
    7.4250    7.4025    7.3400    7.2503    7.1498    7.0542
    6.9761    6.9244    6.9057    7.8242    7.8397    7.8839
    7.9514    8.0338    8.1195    8.1950    8.2471    8.2657
    8.2471    8.1950    8.1195    8.0338    7.9514    7.8839
    7.8397    7.8242    8.1824    8.1967    8.2379    8.3010
    8.3776    8.4569    8.5264    8.5740    8.5910    8.5740
    8.5264    8.4569    8.3776    8.3010    8.2379    8.1967
    8.1824    7.8242    7.8397    7.8839    7.9514    8.0338
    8.1195    8.1950    8.2471    8.2657    8.2471    8.1950
    8.1195    8.0338    7.9514    7.8839    7.8397    7.8242
    7.2417    7.2582    7.3059    7.3797    7.4704    7.5658
    7.6507    7.7097    7.7309    7.7097    7.6507    7.5658
    7.4704    7.3797    7.3059    7.2582    7.2417    6.2584
    6.2782    6.3330    6.4168    6.5203    6.6302    6.7292
    6.7988    6.8240    6.7988    6.7292    6.6302    6.5203
    6.4168    6.3330    6.2782    6.2584    5.7341    5.4539
    5.1450    5.2282    5.3430    5.4676    5.5816    5.6627
    5.6922    5.6627    5.5816    5.4676    5.3430    5.2282
    5.1450    5.4539    5.7341    6.0609    5.9576    5.3121
    4.5368    4.1195    4.2330    4.3578    4.4491    4.4827
    4.4491    4.3578    4.2330    4.1195    4.5368    5.3121
    5.9576    6.0609    5.6831    5.6948    5.7168    5.1708
    4.4018    3.7082    3.2244    3.2501    3.2835    3.2501
    3.2244    3.7082    4.4018    5.1708    5.7168    5.6948
    5.6831    5.4247    5.4373    5.4732    5.5229    5.1312
    4.4491    3.8881    3.5090    3.3724    3.5090    3.8881
    4.4491    5.1312    5.5229    5.4732    5.4373    5.4247
    5.2937    5.3064    5.3432    5.3993    5.4664    5.1002
    4.5538    4.1856    4.0538    4.1856    4.5538    5.1002
    5.4664    5.3993    5.3432    5.3064    5.2937    5.2937
    5.3064    5.3432    5.3993    5.4664    5.1002    4.5538
    4.1856    4.0538    4.1856    4.5538    5.1002    5.4664
    5.3993    5.3432    5.3064    5.2937    5.4247    5.4373
    5.4732    5.5229    5.1312    4.4491    3.8881    3.5090
    3.3724    3.5090    3.8881    4.4491    5.1312    5.5229
    5.4732    5.4373    5.4247    5.6831    5.6948    5.7168
    5.1708    4.4018    3.7082    3.2244    3.2501    3.2835
    3.2501    3.2244    3.7082    4.4018    5.1708    5.7168
    5.6948    5.6831    6.0609    5.9576    5.3121    4.5368
    4.1195    4.2330    4.3578    4.4491    4.4827    4.4491
    4.3578    4.2330    4.1195    4.5368    5.3121    5.9576
    6.0609    5.7341    5.4539    5.1450    5.2282    5.3430
    5.4676    5.5816    5.6627    5.6922    5.6627    5.5816
    5.4676    5.3430    5.2282    5.1450    5.4539    5.7341
    6.2585    6.2782    6.3330    6.4168    6.5203    6.6302
    6.7292    6.7988    6.8240    6.7988    6.7292    6.6302
    6.5203    6.4168    6.3330    6.2782    6.2585    7.2417
    7.2582    7.3059    7.3797    7.4704    7.5658    7.6507
    7.7097    7.7309    7.7097    7.6507    7.5658    7.4704
    7.3797    7.3059    7.2582    7.2417    7.8242    7.8397
    7.8839    7.9514    8.0338    8.1195    8.1950    8.2471
    8.2657    8.2471    8.1950    8.1195    8.0338    7.9514
    7.8839    7.8397    7.8242    7.8242    7.8397    7.8839
    7.9514    8.0337    8.1195    8.1950    8.2471    8.2657
    8.2471    8.1950    8.1195    8.0337    7.9514    7.8839
    7.8397    7.8242    6.9057    6.9244    6.9761    7.0542
    7.1498    7.2503    7.3400    7.4025    7.4250    7.4025
    7.3400    7.2503    7.1498    7.0542    6.9761    6.9244
    6.9057    6.2584    6.2782    6.3330    6.4168    6.5203
    6.6302    6.7292    6.7988    6.8240    6.7988    6.7292
    6.6302    6.5203    6.4168    6.3330    6.2782    6.2584
    5.6684    5.4553    5.5136    5.6045    5.7184    5.8408
    5.9525    6.0318    6.0607    6.0318    5.9525    5.8408
    5.7184    5.6045    5.5136    5.4553    5.6684    5.6191
    5.6076    5.1533    4.5837    4.6913    4.8247    4.9487
    5.0377    5.0703    5.0377    4.9487    4.8247    4.6913
    4.5837    5.1533    5.6076    5.6191    5.1165    5.1296
    5.1587    4.9324    4.2025    3.7104    3.8104    3.9052
    3.9407    3.9052    3.8104    3.7104    4.2025    4.9324
    5.1587    5.1296    5.1165    4.7690    4.7843    4.8279
    4.8899    4.8335    4.2145    3.6563    3.2757    3.1355
    3.2757    3.6563    4.2145    4.8335    4.8899    4.8279
    4.7843    4.7690    4.5624    4.5783    4.6244    4.6953
    4.7812    4.8413    4.4119    4.0451    3.9132    4.0451
    4.4119    4.8413    4.7812    4.6953    4.6244    4.5783
    4.5624    4.4936    4.5097    4.5563    4.6285    4.7178
    4.8131    4.8419    4.4774    4.3472    4.4774    4.8419
    4.8131    4.7178    4.6285    4.5563    4.5097    4.4936
    4.5624    4.5783    4.6244    4.6953    4.7812    4.8413
    4.4119    4.0451    3.9132    4.0451    4.4119    4.8413
    4.7812    4.6953    4.6244    4.5783    4.5624    4.7690
    4.7843    4.8279    4.8899    4.8335    4.2145    3.6562
    3.2757    3.1355    3.2757    3.6562    4.2145    4.8335
    4.8899    4.8279    4.7843    4.7690    5.1165    5.1296
    5.1587    4.9324    4.2025    3.7104    3.8104    3.9052
    3.9407    3.9052    3.8104    3.7104    4.2025    4.9324
    5.1587    5.1296    5.1165    5.6191    5.6076    5.1533
    4.5837    4.6913    4.8248    4.9487    5.0377    5.0703
    5.0377    4.9487    4.8248    4.6913    4.5837    5.1533
    5.6076    5.6191    5.6684    5.4553    5.5135    5.6045
    5.7184    5.8408    5.9524    6.0318    6.0607    6.0318
    5.9524    5.8408    5.7184    5.6045    5.5135    5.4553
    5.6684    6.2585    6.2782    6.3330    6.4168    6.5203
    6.6302    6.7292    6.7988    6.8240    6.7988    6.7292
    6.6302    6.5203    6.4168    6.3330    6.2782    6.2585
    6.9057    6.9244    6.9761    7.0542    7.1498    7.2503
    7.3400    7.4025    7.4250    7.4025    7.3400    7.2503
    7.1498    7.0542    6.9761    6.9244    6.9057    7.2417
    7.2582    7.3059    7.3797    7.4704    7.5658    7.6507
    7.7097    7.7309    7.7097    7.6507    7.5658    7.4704
    7.3797    7.3059    7.2582    7.2417    6.9057    6.9244
    6.9761    7.0542    7.1498    7.2503    7.3400    7.4025
    7.4250    7.4025    7.3400    7.2503    7.1498    7.0542
    6.9761    6.9244    6.9057    5.6997    5.7256    5.7847
    5.8732    5.9828    6.0997    6.2056    6.2803    6.3074
    6.2803    6.2056    6.0997    5.9828    5.8732    5.7847
    5.7256    5.6997    5.7341    5.4539    5.1450    5.2282
    5.3430    5.4676    5.5816    5.6627    5.6922    5.6627
    5.5816    5.4676    5.3430    5.2282    5.1450    5.4539
    5.7341    5.6191    5.6076    5.1533    4.5837    4.6913
    4.8247    4.9486    5.0377    5.0703    5.0377    4.9486
    4.8247    4.6913    4.5837    5.1533    5.6076    5.6191
    4.6843    4.6979    4.7311    4.6877    4.0945    4.1035
    4.2414    4.3415    4.3784    4.3415    4.2414    4.1035
    4.0945    4.6877    4.7311    4.6979    4.6843    4.0525
    4.0696    4.1186    4.1912    4.2599    4.0432    3.5311
    3.4207    3.4572    3.4207    3.5311    4.0432    4.2599
    4.1912    4.1186    4.0696    4.0525    3.7044    3.7229
    3.7765    3.8596    3.9621    4.0687    4.1375    3.9204
    3.7943    3.9204    4.1375    4.0687    3.9621    3.8596
    3.7765    3.7229    3.7044    3.5448    3.5638    3.6190
    3.7049    3.8123    3.9279    4.0349    4.1133    4.1433
    4.1133    4.0349    3.9279    3.8123    3.7049    3.6190
    3.5638    3.5448    3.5448    3.5638    3.6190    3.7049
    3.8123    3.9279    4.0349    4.1133    4.1433    4.1133
    4.0349    3.9279    3.8123    3.7049    3.6190    3.5638
    3.5448    3.7044    3.7229    3.7765    3.8596    3.9621
    4.0687    4.1375    3.9203    3.7943    3.9203    4.1375
    4.0687    3.9621    3.8596    3.7765    3.7229    3.7044
    4.0525    4.0696    4.1186    4.1912    4.2599    4.0432
    3.5311    3.4207    3.4572    3.4207    3.5311    4.0432
    4.2599    4.1912    4.1186    4.0696    4.0525    4.6843
    4.6979    4.7311    4.6877    4.0945    4.1035    4.2414
    4.3415    4.3784    4.3415    4.2414    4.1035    4.0945
    4.6877    4.7311    4.6979    4.6843    5.6191    5.6076
    5.1533    4.5837    4.6913    4.8247    4.9487    5.0377
    5.0703    5.0377    4.9487    4.8247    4.6913    4.5837
    5.1533    5.6076    5.6191    5.7341    5.4539    5.1450
    5.2282    5.3430    5.4676    5.5816    5.6627    5.6922
    5.6627    5.5816    5.4676    5.3430    5.2282    5.1450
    5.4539    5.7341    5.6997    5.7256    5.7847    5.8732
    5.9828    6.0997    6.2056    6.2803    6.3074    6.2803
    6.2056    6.0997    5.9828    5.8732    5.7847    5.7256
    5.6997    6.2585    6.2782    6.3330    6.4168    6.5203
    6.6302    6.7292    6.7988    6.8240    6.7988    6.7292
    6.6302    6.5203    6.4168    6.3330    6.2782    6.2585
    6.2584    6.2782    6.3330    6.4168    6.5203    6.6302
    6.7292    6.7988    6.8240    6.7988    6.7292    6.6302
    6.5203    6.4168    6.3330    6.2782    6.2584    5.6997
    5.7256    5.7847    5.8732    5.9828    6.0997    6.2056
    6.2803    6.3074    6.2803    6.2056    6.0997    5.9828
    5.8732    5.7847    5.7256    5.6997    5.9303    5.6501
    4.9981    4.6143    4.7169    4.8459    4.9663    5.0526
    5.0842    5.0526    4.9663    4.8459    4.7169    4.6143
    4.9981    5.6501    5.9303    6.0609    5.9576    5.3121
    4.5368    4.1195    4.2330    4.3578    4.4491    4.4827
    4.4491    4.3578    4.2330    4.1195    4.5368    5.3121
    5.9576    6.0609    5.1165    5.1296    5.1587    4.9324
    4.2025    3.7104    3.8104    3.9052    3.9407    3.9052
    3.8104    3.7104    4.2025    4.9324    5.1587    5.1296
    5.1165    4.0525    4.0696    4.1186    4.1912    4.2599
    4.0432    3.5311    3.4207    3.4572    3.4207    3.5311
    4.0432    4.2599    4.1912    4.1186    4.0696    4.0525
    3.1580    3.1771    3.2325    3.3181    3.4237    3.5351
    3.6348    3.7063    3.7497    3.7063    3.6348    3.5351
    3.4237    3.3181    3.2325    3.1771    3.1580    2.6929
    2.7134    2.7729    2.8656    2.9814    3.1061    3.2213
    3.3058    3.3377    3.3058    3.2213    3.1061    2.9814
    2.8656    2.7729    2.7134    2.6929    2.5681    2.5890
    2.6499    2.7450    2.8641    2.9927    3.1115    3.1977
    3.2296    3.1977    3.1115    2.9927    2.8641    2.7450
    2.6499    2.5890    2.5681    2.6929    2.7134    2.7729
    2.8656    2.9814    3.1061    3.2213    3.3058    3.3377
    3.3058    3.2213    3.1061    2.9814    2.8656    2.7729
    2.7134    2.6929    3.1580    3.1771    3.2325    3.3181
    3.4237    3.5351    3.6348    3.7063    3.7497    3.7063
    3.6348    3.5351    3.4237    3.3181    3.2325    3.1771
    3.1580    4.0525    4.0696    4.1186    4.1912    4.2599
    4.0432    3.5311    3.4207    3.4572    3.4207    3.5311
    4.0432    4.2599    4.1912    4.1186    4.0696    4.0525
    5.1165    5.1296    5.1588    4.9324    4.2025    3.7104
    3.8104    3.9052    3.9407    3.9052    3.8104    3.7104
    4.2025    4.9324    5.1588    5.1296    5.1165    6.0609
    5.9576    5.3121    4.5368    4.1195    4.2330    4.3578
    4.4491    4.4827    4.4491    4.3578    4.2330    4.1195
    4.5368    5.3121    5.9576    6.0609    5.9303    5.6501
    4.9981    4.6143    4.7169    4.8459    4.9663    5.0526
    5.0842    5.0526    4.9663    4.8459    4.7169    4.6143
    4.9981    5.6501    5.9303    5.7341    5.4539    5.1450
    5.2282    5.3430    5.4676    5.5816    5.6627    5.6922
    5.6627    5.5816    5.4676    5.3430    5.2282    5.1450
    5.4539    5.7341    5.6684    5.4553    5.5135    5.6045
    5.7184    5.8408    5.9525    6.0318    6.0607    6.0318
    5.9525    5.8408    5.7184    5.6045    5.5135    5.4553
    5.6684    5.7341    5.4539    5.1450    5.2282    5.3430
    5.4676    5.5816    5.6627    5.6922    5.6627    5.5816
    5.4676    5.3430    5.2282    5.1450    5.4539    5.7341
    5.9303    5.6501    4.9981    4.6143    4.7169    4.8459
    4.9663    5.0526    5.0842    5.0526    4.9663    4.8459
    4.7169    4.6143    4.9981    5.6501    5.9303    6.1695
    6.1811    5.5752    4.7920    4.0242    3.6227    3.7249
    3.8181    3.8531    3.8181    3.7249    3.6227    4.0242
    4.7920    5.5752    6.1811    6.1695    5.6831    5.6948
    5.7168    5.1708    4.4018    3.7082    3.2244    3.2501
    3.2835    3.2501    3.2244    3.7082    4.4018    5.1708
    5.7168    5.6948    5.6831    4.7690    4.7843    4.8279
    4.8899    4.8335    4.2145    3.6562    3.2757    3.1355
    3.2757    3.6562    4.2145    4.8335    4.8899    4.8279
    4.7843    4.7690    3.7044    3.7229    3.7765    3.8596
    3.9621    4.0687    4.1375    3.9203    3.7943    3.9204
    4.1375    4.0687    3.9621    3.8596    3.7765    3.7229
    3.7044    2.6929    2.7134    2.7729    2.8656    2.9814
    3.1061    3.2213    3.3058    3.3377    3.3058    3.2213
    3.1061    2.9814    2.8656    2.7729    2.7134    2.6929
    2.0100    2.0312    2.0928    2.1883    2.3068    2.4327
    2.5466    2.6272    2.6566    2.6272    2.5466    2.4327
    2.3068    2.1883    2.0928    2.0312    2.0100    2.0100
    2.0312    2.0928    2.1883    2.3068    2.4327    2.5466
    2.6272    2.6566    2.6272    2.5466    2.4327    2.3068
    2.1883    2.0928    2.0312    2.0100    2.6929    2.7134
    2.7729    2.8656    2.9814    3.1061    3.2213    3.3058
    3.3377    3.3058    3.2213    3.1061    2.9814    2.8656
    2.7729    2.7134    2.6929    3.7044    3.7229    3.7765
    3.8596    3.9621    4.0687    4.1375    3.9204    3.7943
    3.9204    4.1375    4.0687    3.9621    3.8596    3.7765
    3.7229    3.7044    4.7690    4.7843    4.8279    4.8899
    4.8335    4.2145    3.6562    3.2757    3.1355    3.2757
    3.6563    4.2145    4.8335    4.8899    4.8279    4.7843
    4.7690    5.6831    5.6948    5.7168    5.1708    4.4018
    3.7082    3.2244    3.2501    3.2835    3.2501    3.2244
    3.7082    4.4018    5.1708    5.7168    5.6948    5.6831
    6.1695    6.1811    5.5752    4.7920    4.0242    3.6227
    3.7249    3.8181    3.8531    3.8181    3.7249    3.6227
    4.0242    4.7920    5.5752    6.1811    6.1695    6.0609
    5.9576    5.3121    4.5368    4.1195    4.2330    4.3578
    4.4491    4.4827    4.4491    4.3578    4.2330    4.1195
    4.5368    5.3121    5.9576    6.0609    5.6191    5.6076
    5.1533    4.5837    4.6913    4.8247    4.9487    5.0377
    5.0703    5.0377    4.9487    4.8247    4.6913    4.5837
    5.1533    5.6076    5.6191    5.6191    5.6076    5.1533
    4.5837    4.6913    4.8247    4.9487    5.0377    5.0703
    5.0377    4.9487    4.8247    4.6913    4.5837    5.1533
    5.6076    5.6191    6.0609    5.9576    5.3121    4.5368
    4.1195    4.2330    4.3578    4.4491    4.4827    4.4491
    4.3578    4.2330    4.1195    4.5368    5.3121    5.9576
    6.0609    6.1695    6.1811    5.5752    4.7920    4.0242
    3.6227    3.7249    3.8181    3.8531    3.8181    3.7249
    3.6227    4.0242    4.7920    5.5752    6.1811    6.1695
    5.8561    5.8674    5.8999    5.4845    4.7164    4.0207
    3.4520    3.0654    2.9209    3.0654    3.4520    4.0207
    4.7164    5.4845    5.8999    5.8674    5.8561    5.4247
    5.4373    5.4732    5.5229    5.1312    4.4491    3.8881
    3.5090    3.3724    3.5090    3.8881    4.4491    5.1312
    5.5229    5.4732    5.4373    5.4247    4.5624    4.5783
    4.6244    4.6953    4.7812    4.8413    4.4119    4.0451
    3.9132    4.0451    4.4119    4.8413    4.7812    4.6953
    4.6244    4.5783    4.5624    3.5448    3.5638    3.6190
    3.7049    3.8123    3.9279    4.0349    4.1133    4.1433
    4.1133    4.0349    3.9279    3.8123    3.7049    3.6190
    3.5638    3.5448    2.5681    2.5890    2.6500    2.7450
    2.8641    2.9927    3.1115    3.1977    3.2296    3.1977
    3.1115    2.9927    2.8641    2.7450    2.6500    2.5890
    2.5681    2.0100    2.0312    2.0928    2.1883    2.3068
    2.4327    2.5466    2.6272    2.6566    2.6272    2.5466
    2.4327    2.3068    2.1883    2.0928    2.0312    2.0100
    2.5681    2.5890    2.6499    2.7450    2.8641    2.9927
    3.1115    3.1977    3.2296    3.1977    3.1115    2.9927
    2.8641    2.7450    2.6499    2.5890    2.5681    3.5448
    3.5638    3.6190    3.7049    3.8123    3.9279    4.0349
    4.1133    4.1433    4.1133    4.0349    3.9279    3.8123
    3.7049    3.6190    3.5638    3.5448    4.5624    4.5783
    4.6244    4.6953    4.7812    4.8413    4.4119    4.0451
    3.9132    4.0451    4.4119    4.8413    4.7812    4.6953
    4.6244    4.5783    4.5624    5.4247    5.4373    5.4732
    5.5229    5.1312    4.4491    3.8881    3.5090    3.3724
    3.5090    3.8881    4.4491    5.1312    5.5229    5.4732
    5.4373    5.4247    5.8561    5.8674    5.8999    5.4845
    4.7164    4.0207    3.4520    3.0654    2.9209    3.0654
    3.4520    4.0207    4.7164    5.4845    5.8999    5.8674
    5.8561    5.6831    5.6948    5.7168    5.1708    4.4018
    3.7082    3.2244    3.2501    3.2835    3.2501    3.2244
    3.7082    4.4018    5.1708    5.7168    5.6948    5.6831
    5.1165    5.1296    5.1587    4.9324    4.2025    3.7104
    3.8104    3.9052    3.9407    3.9052    3.8104    3.7104
    4.2025    4.9324    5.1587    5.1296    5.1165    4.6843
    4.6979    4.7311    4.6877    4.0945    4.1035    4.2414
    4.3415    4.3784    4.3415    4.2414    4.1035    4.0945
    4.6877    4.7311    4.6979    4.6843    5.1165    5.1296
    5.1588    4.9324    4.2025    3.7104    3.8104    3.9052
    3.9407    3.9052    3.8104    3.7104    4.2025    4.9324
    5.1588    5.1296    5.1165    5.6831    5.6948    5.7168
    5.1708    4.4018    3.7082    3.2244    3.2501    3.2835
    3.2501    3.2244    3.7082    4.4018    5.1708    5.7168
    5.6948    5.6831    5.8561    5.8674    5.8999    5.4845
    4.7164    4.0207    3.4520    3.0654    2.9209    3.0654
    3.4520    4.0207    4.7164    5.4845    5.8999    5.8674
    5.8561    5.6633    5.6744    5.7064    5.7551    5.4387
    4.7602    4.2049    3.8309    3.6968    3.8309    4.2049
    4.7602    5.4387    5.7551    5.7064    5.6744    5.6633
    5.2937    5.3065    5.3432    5.3993    5.4664    5.1002
    4.5538    4.1856    4.0538    4.1856    4.5538    5.1002
    5.4664    5.3993    5.3432    5.3065    5.2937    4.4936
    4.5097    4.5563    4.6285    4.7179    4.8131    4.8419
    4.4774    4.3472    4.4774    4.8419    4.8131    4.7179
    4.6285    4.5563    4.5097    4.4936    3.5448    3.5638
    3.6190    3.7049    3.8123    3.9279    4.0349    4.1133
    4.1433    4.1133    4.0349    3.9279    3.8123    3.7049
    3.6190    3.5638    3.5448    2.6929    2.7134    2.7729
    2.8656    2.9814    3.1061    3.2213    3.3058    3.3377
    3.3058    3.2213    3.1061    2.9814    2.8656    2.7729
    2.7134    2.6929    2.6929    2.7134    2.7729    2.8656
    2.9814    3.1061    3.2213    3.3058    3.3377    3.3058
    3.2213    3.1061    2.9814    2.8656    2.7729    2.7134
    2.6929    3.5448    3.5638    3.6190    3.7049    3.8123
    3.9279    4.0349    4.1133    4.1433    4.1133    4.0349
    3.9279    3.8123    3.7049    3.6190    3.5638    3.5448
    4.4936    4.5097    4.5563    4.6285    4.7178    4.8131
    4.8419    4.4774    4.3472    4.4774    4.8420    4.8131
    4.7178    4.6285    4.5563    4.5097    4.4936    5.2937
    5.3064    5.3432    5.3993    5.4664    5.1002    4.5538
    4.1856    4.0538    4.1856    4.5538    5.1002    5.4664
    5.3993    5.3432    5.3064    5.2937    5.6633    5.6744
    5.7064    5.7551    5.4387    4.7602    4.2049    3.8309
    3.6968    3.8309    4.2049    4.7602    5.4387    5.7551
    5.7064    5.6744    5.6633    5.4247    5.4373    5.4732
    5.5229    5.1312    4.4491    3.8881    3.5090    3.3724
    3.5090    3.8881    4.4491    5.1312    5.5229    5.4732
    5.4373    5.4247    4.7690    4.7843    4.8279    4.8899
    4.8335    4.2145    3.6562    3.2757    3.1355    3.2757
    3.6562    4.2145    4.8335    4.8899    4.8279    4.7843
    4.7690    4.0525    4.0696    4.1186    4.1912    4.2599
    4.0432    3.5311    3.4207    3.4572    3.4207    3.5311
    4.0432    4.2599    4.1912    4.1186    4.0696    4.0525
    4.0525    4.0696    4.1186    4.1912    4.2599    4.0432
    3.5311    3.4207    3.4572    3.4207    3.5311    4.0432
    4.2599    4.1912    4.1186    4.0696    4.0525    4.7690
    4.7843    4.8279    4.8899    4.8335    4.2145    3.6562
    3.2757    3.1355    3.2757    3.6563    4.2145    4.8335
    4.8899    4.8279    4.7843    4.7690    5.4247    5.4373
    5.4732    5.5229    5.1312    4.4491    3.8881    3.5090
    3.3724    3.5090    3.8881    4.4491    5.1312    5.5229
    5.4732    5.4373    5.4247    5.6633    5.6744    5.7064
    5.7551    5.4387    4.7602    4.2049    3.8309    3.6968
    3.8309    4.2049    4.7602    5.4387    5.7551    5.7064
    5.6744    5.6633    5.5983    5.6093    5.6411    5.6896
    5.7482    5.1645    4.6196    4.2526    4.1212    4.2526
    4.6196    5.1645    5.7482    5.6896    5.6411    5.6093
    5.5983    5.2937    5.3064    5.3432    5.3993    5.4664
    5.1002    4.5538    4.1856    4.0538    4.1856    4.5538
    5.1002    5.4664    5.3993    5.3432    5.3064    5.2937
    4.5624    4.5783    4.6244    4.6953    4.7812    4.8413
    4.4119    4.0451    3.9132    4.0451    4.4119    4.8413
    4.7812    4.6953    4.6244    4.5783    4.5624    3.7044
    3.7229    3.7765    3.8596    3.9621    4.0687    4.1375
    3.9204    3.7943    3.9204    4.1375    4.0687    3.9621
    3.8596    3.7765    3.7229    3.7044    3.1580    3.1771
    3.2325    3.3181    3.4237    3.5351    3.6348    3.7063
    3.7497    3.7063    3.6348    3.5351    3.4237    3.3181
    3.2325    3.1771    3.1580    3.7044    3.7229    3.7765
    3.8596    3.9621    4.0687    4.1375    3.9204    3.7943
    3.9204    4.1375    4.0687    3.9621    3.8596    3.7765
    3.7229    3.7044    4.5624    4.5783    4.6244    4.6953
    4.7812    4.8413    4.4119    4.0451    3.9132    4.0451
    4.4119    4.8413    4.7812    4.6953    4.6244    4.5783
    4.5624    5.2937    5.3065    5.3432    5.3993    5.4664
    5.1002    4.5538    4.1856    4.0538    4.1856    4.5538
    5.1002    5.4664    5.3993    5.3432    5.3065    5.2937
    5.5983    5.6093    5.6411    5.6896    5.7482    5.1645
    4.6196    4.2526    4.1212    4.2526    4.6196    5.1645
    5.7482    5.6896    5.6411    5.6093    5.5983    5.2937
    5.3065    5.3432    5.3993    5.4664    5.1002    4.5538
    4.1856    4.0538    4.1856    4.5538    5.1002    5.4664
    5.3993    5.3432    5.3065    5.2937    4.5624    4.5783
    4.6244    4.6953    4.7812    4.8413    4.4119    4.0451
    3.9132    4.0451    4.4119    4.8413    4.7812    4.6953
    4.6244    4.5783    4.5624    3.7044    3.7229    3.7765
    3.8596    3.9621    4.0687    4.1375    3.9204    3.7943
    3.9204    4.1375    4.0687    3.9621    3.8596    3.7765
    3.7229    3.7044    3.1580    3.1771    3.2325    3.3181
    3.4237    3.5351    3.6348    3.7063    3.7497    3.7063
    3.6348    3.5351    3.4237    3.3181    3.2325    3.1771
    3.1580    3.7044    3.7229    3.7765    3.8596    3.9621
    4.0687    4.1375    3.9204    3.7943    3.9204    4.1375
    4.0687    3.9621    3.8596    3.7765    3.7229    3.7044
    4.5624    4.5783    4.6244    4.6953    4.7812    4.8413
    4.4119    4.0451    3.9132    4.0451    4.4119    4.8413
    4.7812    4.6953    4.6244    4.5783    4.5624    5.2937
    5.3064    5.3432    5.3993    5.4664    5.1002    4.5538
    4.1856    4.0538    4.1856    4.5538    5.1002    5.4664
    5.3993    5.3432    5.3064    5.2937    5.5983    5.6093
    5.6411    5.6896    5.7482    5.1645    4.6196    4.2526
    4.1212    4.2526    4.6196    5.1645    5.7482    5.6896
    5.6411    5.6093    5.5983    5.6633    5.6744    5.7064
    5.7551    5.4387    4.7602    4.2049    3.8309    3.6968
    3.8309    4.2049    4.7602    5.4387    5.7551    5.7064
    5.6744    5.6633    5.4247    5.4373    5.4732    5.5229
    5.1312    4.4491    3.8881    3.5090    3.3724    3.5090
    3.8881    4.4491    5.1312    5.5229    5.4732    5.4373
    5.4247    4.7690    4.7843    4.8279    4.8899    4.8335
    4.2145    3.6562    3.2757    3.1355    3.2757    3.6563
    4.2145    4.8335    4.8899    4.8279    4.7843    4.7690
    4.0525    4.0696    4.1186    4.1912    4.2599    4.0432
    3.5311    3.4207    3.4572    3.4207    3.5311    4.0432
    4.2599    4.1912    4.1186    4.0696    4.0525    4.0525
    4.0696    4.1186    4.1912    4.2599    4.0432    3.5311
    3.4207    3.4572    3.4207    3.5311    4.0432    4.2599
    4.1912    4.1186    4.0696    4.0525    4.7690    4.7843
    4.8279    4.8899    4.8335    4.2145    3.6562    3.2757
    3.1355    3.2757    3.6562    4.2145    4.8335    4.8899
    4.8279    4.7843    4.7690    5.4247    5.4373    5.4732
    5.5229    5.1312    4.4491    3.8881    3.5090    3.3724
    3.5090    3.8881    4.4491    5.1312    5.5229    5.4732
    5.4373    5.4247    5.6633    5.6744    5.7064    5.7551
    5.4387    4.7602    4.2049    3.8309    3.6968    3.8309
    4.2049    4.7602    5.4387    5.7551    5.7064    5.6744
    5.6633    5.2937    5.3064    5.3432    5.3993    5.4664
    5.1002    4.5538    4.1856    4.0538    4.1856    4.5538
    5.1002    5.4664    5.3993    5.3432    5.3064    5.2937
    4.4936    4.5097    4.5563    4.6285    4.7178    4.8131
    4.8419    4.4774    4.3472    4.4774    4.8420    4.8131
    4.7178    4.6285    4.5563    4.5097    4.4936    3.5448
    3.5638    3.6190    3.7049    3.8123    3.9279    4.0349
    4.1133    4.1433    4.1133    4.0349    3.9279    3.8123
    3.7049    3.6190    3.5638    3.5448    2.6929    2.7134
    2.7729    2.8656    2.9814    3.1061    3.2213    3.3058
    3.3377    3.3058    3.2213    3.1061    2.9814    2.8656
    2.7729    2.7134    2.6929    2.6929    2.7134    2.7729
    2.8656    2.9814    3.1061    3.2213    3.3058    3.3377
    3.3058    3.2213    3.1061    2.9814    2.8656    2.7729
    2.7134    2.6929    3.5448    3.5638    3.6190    3.7049
    3.8123    3.9279    4.0349    4.1133    4.1433    4.1133
    4.0349    3.9279    3.8123    3.7049    3.6190    3.5638
    3.5448    4.4936    4.5097    4.5563    4.6285    4.7179
    4.8131    4.8419    4.4774    4.3472    4.4774    4.8419
    4.8131    4.7179    4.6285    4.5563    4.5097    4.4936
    5.2937    5.3065    5.3432    5.3993    5.4664    5.1002
    4.5538    4.1856    4.0538    4.1856    4.5538    5.1002
    5.4664    5.3993    5.3432    5.3065    5.2937    5.6633
    5.6744    5.7064    5.7551    5.4387    4.7602    4.2049
    3.8309    3.6968    3.8309    4.2049    4.7602    5.4387
    5.7551    5.7064    5.6744    5.6633    5.8561    5.8674
    5.8999    5.4845    4.7164    4.0207    3.4520    3.0654
    2.9209    3.0654    3.4520    4.0207    4.7164    5.4845