 BEGIN_INFO
   #
   # this is a Band-XCRYSDEN-Structure-File
   # aimed at Visualization of Fermi Surface
   #
   Fermi Energy:        7.8071
 END_INFO
 BEGIN_BLOCK_BANDGRID_3D
 band_energies
 BANDGRID_3D_BANDS
   12
   17    17    17
  0.00000000 0.00000000 0.00000000
  1.00000000 0.57735027 0.00000000
  0.00000000 1.15470054 0.00000000
  0.00000000 0.00000000 0.87962869
BAND:    1
-4.7390 -4.7054 -4.6059 -4.4453 -4.2329 -3.9862 -3.7375 -3.5404 -3.4629 -3.5404 -3.7375 -3.9862 -4.2329 -4.4453 -4.6059 -4.7054 -4.7390 
-4.6711 -4.6376 -4.5384 -4.3782 -4.1664 -3.9206 -3.6730 -3.4769 -3.3999 -3.4769 -3.6730 -3.9206 -4.1664 -4.3782 -4.5384 -4.6376 -4.6711 
-4.4678 -4.4345 -4.3360 -4.1771 -3.9672 -3.7241 -3.4796 -3.2867 -3.2111 -3.2867 -3.4796 -3.7241 -3.9672 -4.1771 -4.3360 -4.4345 -4.4678 
-4.1301 -4.0972 -4.0000 -3.8432 -3.6364 -3.3976 -3.1584 -2.9704 -2.8971 -2.9704 -3.1584 -3.3976 -3.6364 -3.8432 -4.0000 -4.0972 -4.1301 
-3.6600 -3.6276 -3.5321 -3.3782 -3.1758 -2.9429 -2.7107 -2.5295 -2.4590 -2.5295 -2.7107 -2.9429 -3.1758 -3.3782 -3.5321 -3.6276 -3.6600 
-3.0606 -3.0289 -2.9356 -2.7855 -2.5886 -2.3628 -2.1392 -1.9660 -1.8991 -1.9660 -2.1393 -2.3628 -2.5886 -2.7855 -2.9356 -3.0289 -3.0606 
-2.3381 -2.3073 -2.2165 -2.0709 -1.8804 -1.6629 -1.4490 -1.2844 -1.2212 -1.2844 -1.4490 -1.6629 -1.8804 -2.0709 -2.2165 -2.3073 -2.3381 
-1.5114 -1.4816 -1.3936 -1.2527 -1.0687 -0.8595 -0.6546 -0.4979 -0.4380 -0.4979 -0.6546 -0.8595 -1.0687 -1.2527 -1.3936 -1.4816 -1.5114 
-0.8381 -0.8087 -0.7219 -0.5824 -0.3994 -0.1898 0.0176 0.1780 0.2399 0.1780 0.0176 -0.1898 -0.3994 -0.5824 -0.7219 -0.8087 -0.8381 
-1.5114 -1.4816 -1.3937 -1.2527 -1.0687 -0.8595 -0.6546 -0.4979 -0.4380 -0.4979 -0.6546 -0.8595 -1.0687 -1.2527 -1.3937 -1.4816 -1.5114 
-2.3381 -2.3073 -2.2165 -2.0709 -1.8804 -1.6630 -1.4490 -1.2844 -1.2212 -1.2844 -1.4490 -1.6630 -1.8804 -2.0709 -2.2165 -2.3073 -2.3381 
-3.0606 -3.0289 -2.9356 -2.7855 -2.5886 -2.3628 -2.1393 -1.9660 -1.8991 -1.9660 -2.1393 -2.3628 -2.5886 -2.7855 -2.9356 -3.0289 -3.0606 
-3.6600 -3.6276 -3.5321 -3.3782 -3.1759 -2.9429 -2.7107 -2.5295 -2.4590 -2.5295 -2.7107 -2.9429 -3.1759 -3.3782 -3.5321 -3.6276 -3.6600 
-4.1301 -4.0972 -4.0000 -3.8432 -3.6364 -3.3976 -3.1584 -2.9705 -2.8971 -2.9705 -3.1584 -3.3976 -3.6364 -3.8432 -4.0000 -4.0972 -4.1301 
-4.4678 -4.4345 -4.3360 -4.1771 -3.9672 -3.7241 -3.4796 -3.2867 -3.2111 -3.2867 -3.4796 -3.7241 -3.9672 -4.1771 -4.3360 -4.4345 -4.4678 
-4.6711 -4.6376 -4.5384 -4.3782 -4.1664 -3.9206 -3.6730 -3.4769 -3.3999 -3.4769 -3.6730 -3.9206 -4.1664 -4.3782 -4.5384 -4.6376 -4.6711 
-4.7390 -4.7054 -4.6059 -4.4453 -4.2329 -3.9862 -3.7375 -3.5404 -3.4629 -3.5404 -3.7375 -3.9862 -4.2329 -4.4453 -4.6059 -4.7054 -4.7390 

-4.6711 -4.6376 -4.5384 -4.3782 -4.1664 -3.9206 -3.6730 -3.4769 -3.3999 -3.4769 -3.6730 -3.9206 -4.1664 -4.3782 -4.5384 -4.6376 -4.6711 
-4.5355 -4.5021 -4.4034 -4.2441 -4.0335 -3.7895 -3.5440 -3.3501 -3.2740 -3.3501 -3.5440 -3.7896 -4.0335 -4.2441 -4.4034 -4.5021 -4.5355 
-4.2650 -4.2320 -4.1342 -3.9766 -3.7686 -3.5280 -3.2867 -3.0968 -3.0226 -3.0968 -3.2867 -3.5280 -3.7686 -3.9766 -4.1342 -4.2320 -4.2650 
-3.8611 -3.8285 -3.7322 -3.5771 -3.3729 -3.1374 -2.9023 -2.7182 -2.6466 -2.7182 -2.9023 -3.1374 -3.3729 -3.5771 -3.7322 -3.8285 -3.8611 
-3.3262 -3.2943 -3.2000 -3.0482 -2.8489 -2.6200 -2.3927 -2.2160 -2.1475 -2.2160 -2.3927 -2.6200 -2.8489 -3.0482 -3.2000 -3.2943 -3.3262 
-2.6648 -2.6337 -2.5418 -2.3941 -2.2008 -1.9797 -1.7616 -1.5933 -1.5284 -1.5933 -1.7616 -1.9797 -2.2008 -2.3941 -2.5418 -2.6337 -2.6648 
-1.8868 -1.8566 -1.7675 -1.6245 -1.4378 -1.2253 -1.0168 -0.8571 -0.7959 -0.8571 -1.0168 -1.2253 -1.4378 -1.6245 -1.7675 -1.8566 -1.8868 
-1.0447 -1.0153 -0.9287 -0.7897 -0.6082 -0.4017 -0.1993 -0.0444 0.0148 -0.0444 -0.1993 -0.4017 -0.6082 -0.7897 -0.9287 -1.0153 -1.0447 
-1.0447 -1.0153 -0.9287 -0.7897 -0.6082 -0.4017 -0.1993 -0.0444 0.0148 -0.0444 -0.1993 -0.4017 -0.6082 -0.7897 -0.9287 -1.0153 -1.0447 
-1.8869 -1.8566 -1.7675 -1.6245 -1.4378 -1.2253 -1.0168 -0.8571 -0.7959 -0.8571 -1.0168 -1.2253 -1.4378 -1.6245 -1.7675 -1.8566 -1.8869 
-2.6648 -2.6337 -2.5418 -2.3941 -2.2008 -1.9797 -1.7616 -1.5933 -1.5284 -1.5933 -1.7616 -1.9797 -2.2008 -2.3941 -2.5418 -2.6337 -2.6648 
-3.3262 -3.2943 -3.2000 -3.0482 -2.8489 -2.6200 -2.3927 -2.2160 -2.1475 -2.2160 -2.3927 -2.6200 -2.8489 -3.0482 -3.2000 -3.2943 -3.3262 
-3.8611 -3.8285 -3.7322 -3.5771 -3.3729 -3.1374 -2.9023 -2.7182 -2.6466 -2.7182 -2.9023 -3.1374 -3.3729 -3.5771 -3.7322 -3.8285 -3.8611 
-4.2650 -4.2320 -4.1342 -3.9766 -3.7686 -3.5280 -3.2867 -3.0968 -3.0226 -3.0968 -3.2867 -3.5280 -3.7686 -3.9766 -4.1342 -4.2320 -4.2650 
-4.5355 -4.5021 -4.4034 -4.2441 -4.0335 -3.7896 -3.5440 -3.3501 -3.2740 -3.3501 -3.5440 -3.7896 -4.0335 -4.2441 -4.4034 -4.5021 -4.5355 
-4.6711 -4.6376 -4.5384 -4.3782 -4.1664 -3.9206 -3.6730 -3.4769 -3.3999 -3.4769 -3.6730 -3.9206 -4.1664 -4.3782 -4.5384 -4.6376 -4.6711 
-4.6711 -4.6376 -4.5384 -4.3782 -4.1664 -3.9206 -3.6730 -3.4769 -3.3999 -3.4769 -3.6730 -3.9206 -4.1664 -4.3782 -4.5384 -4.6376 -4.6711 

-4.4678 -4.4345 -4.3360 -4.1771 -3.9672 -3.7241 -3.4796 -3.2867 -3.2111 -3.2867 -3.4796 -3.7241 -3.9672 -4.1771 -4.3360 -4.4345 -4.4678 
-4.2650 -4.2320 -4.1342 -3.9766 -3.7686 -3.5280 -3.2867 -3.0968 -3.0226 -3.0968 -3.2867 -3.5280 -3.7686 -3.9766 -4.1342 -4.2320 -4.2650 
-3.9283 -3.8956 -3.7991 -3.6436 -3.4387 -3.2024 -2.9662 -2.7813 -2.7092 -2.7813 -2.9662 -3.2024 -3.4387 -3.6436 -3.7991 -3.8956 -3.9283 
-3.4596 -3.4275 -3.3327 -3.1801 -2.9796 -2.7491 -2.5198 -2.3414 -2.2722 -2.3414 -2.5198 -2.7491 -2.9796 -3.1801 -3.3327 -3.4275 -3.4596 
-2.8624 -2.8310 -2.7384 -2.5895 -2.3945 -2.1711 -1.9504 -1.7797 -1.7139 -1.7797 -1.9504 -2.1712 -2.3945 -2.5895 -2.7384 -2.8310 -2.8624 
-2.1432 -2.1127 -2.0227 -1.8783 -1.6896 -1.4745 -1.2633 -1.1011 -1.0389 -1.1011 -1.2633 -1.4745 -1.6896 -1.8783 -2.0227 -2.1127 -2.1432 
-1.3218 -1.2922 -1.2050 -1.0653 -0.8831 -0.6762 -0.4739 -0.3195 -0.2606 -0.3196 -0.4739 -0.6762 -0.8831 -1.0653 -1.2050 -1.2922 -1.3218 
-0.6551 -0.6259 -0.5398 -0.4016 -0.2204 -0.0133 0.1910 0.3486 0.4092 0.3486 0.1910 -0.0133 -0.2204 -0.4016 -0.5398 -0.6259 -0.6551 
-1.3218 -1.2922 -1.2050 -1.0653 -0.8831 -0.6762 -0.4739 -0.3196 -0.2606 -0.3196 -0.4739 -0.6762 -0.8831 -1.0653 -1.2050 -1.2922 -1.3218 
-2.1433 -2.1127 -2.0227 -1.8783 -1.6896 -1.4745 -1.2633 -1.1011 -1.0389 -1.1011 -1.2633 -1.4745 -1.6896 -1.8783 -2.0227 -2.1127 -2.1433 
-2.8624 -2.8310 -2.7384 -2.5895 -2.3945 -2.1712 -1.9504 -1.7797 -1.7139 -1.7797 -1.9504 -2.1712 -2.3945 -2.5896 -2.7384 -2.8310 -2.8624 
-3.4596 -3.4275 -3.3327 -3.1801 -2.9796 -2.7491 -2.5198 -2.3414 -2.2722 -2.3414 -2.5198 -2.7491 -2.9796 -3.1801 -3.3327 -3.4275 -3.4596 
-3.9283 -3.8956 -3.7991 -3.6436 -3.4387 -3.2024 -2.9662 -2.7812 -2.7092 -2.7812 -2.9662 -3.2024 -3.4387 -3.6436 -3.7991 -3.8956 -3.9283 
-4.2650 -4.2320 -4.1342 -3.9766 -3.7686 -3.5280 -3.2867 -3.0968 -3.0226 -3.0968 -3.2867 -3.5280 -3.7686 -3.9766 -4.1342 -4.2320 -4.2650 
-4.4678 -4.4345 -4.3360 -4.1771 -3.9672 -3.7241 -3.4796 -3.2867 -3.2111 -3.2867 -3.4796 -3.7241 -3.9672 -4.1771 -4.3360 -4.4345 -4.4678 
-4.5355 -4.5021 -4.4034 -4.2441 -4.0335 -3.7895 -3.5440 -3.3501 -3.2740 -3.3501 -3.5440 -3.7896 -4.0335 -4.2441 -4.4034 -4.5021 -4.5355 
-4.4678 -4.4345 -4.3360 -4.1771 -3.9672 -3.7241 -3.4796 -3.2867 -3.2111 -3.2867 -3.4796 -3.7241 -3.9672 -4.1771 -4.3360 -4.4345 -4.4678 

-4.1301 -4.0972 -4.0000 -3.8432 -3.6364 -3.3976 -3.1584 -2.9704 -2.8971 -2.9704 -3.1584 -3.3976 -3.6364 -3.8432 -4.0000 -4.0972 -4.1301 
-3.8611 -3.8285 -3.7322 -3.5771 -3.3729 -3.1374 -2.9023 -2.7182 -2.6466 -2.7182 -2.9023 -3.1374 -3.3729 -3.5771 -3.7322 -3.8285 -3.8611 
-3.4596 -3.4275 -3.3327 -3.1801 -2.9796 -2.7491 -2.5198 -2.3414 -2.2722 -2.3414 -2.5198 -2.7491 -2.9796 -3.1801 -3.3327 -3.4275 -3.4596 
-2.9285 -2.8970 -2.8041 -2.6549 -2.4592 -2.2352 -2.0135 -1.8421 -1.7759 -1.8421 -2.0135 -2.2352 -2.4592 -2.6549 -2.8042 -2.8970 -2.9285 
-2.2728 -2.2421 -2.1517 -2.0065 -1.8167 -1.6004 -1.3876 -1.2242 -1.1614 -1.2242 -1.3876 -1.6004 -1.8167 -2.0065 -2.1517 -2.2421 -2.2728 
-1.5035 -1.4738 -1.3861 -1.2456 -1.0624 -0.8544 -0.6511 -0.4959 -0.4367 -0.4959 -0.6511 -0.8544 -1.0624 -1.2456 -1.3861 -1.4738 -1.5035 
-0.6744 -0.6454 -0.5602 -0.4237 -0.2458 -0.0439 0.1532 0.3034 0.3606 0.3034 0.1532 -0.0439 -0.2458 -0.4237 -0.5602 -0.6454 -0.6744 
-0.6744 -0.6455 -0.5602 -0.4237 -0.2458 -0.0439 0.1532 0.3034 0.3606 0.3034 0.1532 -0.0439 -0.2458 -0.4237 -0.5602 -0.6455 -0.6744 
-1.5035 -1.4738 -1.3861 -1.2456 -1.0624 -0.8544 -0.6511 -0.4959 -0.4367 -0.4959 -0.6511 -0.8544 -1.0624 -1.2456 -1.3861 -1.4738 -1.5035 
-2.2728 -2.2421 -2.1516 -2.0065 -1.8167 -1.6003 -1.3876 -1.2242 -1.1614 -1.2242 -1.3876 -1.6004 -1.8167 -2.0065 -2.1516 -2.2421 -2.2728 
-2.9285 -2.8970 -2.8042 -2.6549 -2.4592 -2.2352 -2.0135 -1.8421 -1.7759 -1.8421 -2.0135 -2.2352 -2.4593 -2.6549 -2.8042 -2.8970 -2.9285 
-3.4596 -3.4275 -3.3327 -3.1801 -2.9796 -2.7491 -2.5198 -2.3414 -2.2722 -2.3414 -2.5198 -2.7491 -2.9796 -3.1801 -3.3327 -3.4275 -3.4596 
-3.8611 -3.8285 -3.7322 -3.5771 -3.3729 -3.1374 -2.9023 -2.7182 -2.6466 -2.7182 -2.9023 -3.1374 -3.3729 -3.5771 -3.7322 -3.8285 -3.8611 
-4.1301 -4.0972 -4.0000 -3.8432 -3.6364 -3.3976 -3.1584 -2.9704 -2.8971 -2.9704 -3.1584 -3.3976 -3.6364 -3.8432 -4.0000 -4.0972 -4.1301 
-4.2650 -4.2320 -4.1342 -3.9766 -3.7686 -3.5280 -3.2867 -3.0968 -3.0226 -3.0968 -3.2867 -3.5280 -3.7686 -3.9766 -4.1342 -4.2320 -4.2650 
-4.2650 -4.2320 -4.1342 -3.9766 -3.7686 -3.5280 -3.2867 -3.0968 -3.0226 -3.0968 -3.2867 -3.5280 -3.7686 -3.9766 -4.1342 -4.2320 -4.2650 
-4.1301 -4.0972 -4.0000 -3.8432 -3.6364 -3.3976 -3.1584 -2.9704 -2.8971 -2.9704 -3.1584 -3.3976 -3.6364 -3.8432 -4.0000 -4.0972 -4.1301 

-3.6600 -3.6276 -3.5321 -3.3782 -3.1758 -2.9429 -2.7107 -2.5295 -2.4590 -2.5295 -2.7107 -2.9429 -3.1758 -3.3782 -3.5321 -3.6276 -3.6600 
-3.3262 -3.2943 -3.2000 -3.0482 -2.8489 -2.6200 -2.3927 -2.2160 -2.1475 -2.2160 -2.3927 -2.6200 -2.8489 -3.0482 -3.2000 -3.2943 -3.3262 
-2.8624 -2.8310 -2.7384 -2.5895 -2.3945 -2.1712 -1.9504 -1.7797 -1.7139 -1.7797 -1.9504 -2.1712 -2.3945 -2.5895 -2.7384 -2.8310 -2.8624 
-2.2728 -2.2421 -2.1517 -2.0065 -1.8167 -1.6004 -1.3876 -1.2242 -1.1614 -1.2242 -1.3876 -1.6004 -1.8167 -2.0065 -2.1517 -2.2421 -2.2728 
-1.5655 -1.5357 -1.4478 -1.3070 -1.1235 -0.9150 -0.7112 -0.5557 -0.4963 -0.5557 -0.7112 -0.9150 -1.1235 -1.3070 -1.4478 -1.5357 -1.5655 
-0.7625 -0.7336 -0.6485 -0.5123 -0.3351 -0.1346 0.0606 0.2087 0.2651 0.2087 0.0606 -0.1346 -0.3351 -0.5123 -0.6485 -0.7336 -0.7625 
-0.1074 -0.0790 0.0049 0.1394 0.3148 0.5144 0.7097 0.8589 0.9160 0.8589 0.7097 0.5144 0.3148 0.1394 0.0049 -0.0790 -0.1074 
-0.7625 -0.7336 -0.6485 -0.5123 -0.3351 -0.1346 0.0606 0.2087 0.2651 0.2087 0.0606 -0.1346 -0.3351 -0.5123 -0.6485 -0.7336 -0.7625 
-1.5655 -1.5357 -1.4478 -1.3070 -1.1235 -0.9150 -0.7112 -0.5557 -0.4963 -0.5557 -0.7112 -0.9150 -1.1235 -1.3070 -1.4478 -1.5357 -1.5655 
-2.2728 -2.2421 -2.1517 -2.0065 -1.8167 -1.6004 -1.3876 -1.2242 -1.1614 -1.2242 -1.3876 -1.6004 -1.8168 -2.0065 -2.1517 -2.2421 -2.2728 
-2.8624 -2.8310 -2.7384 -2.5896 -2.3945 -2.1712 -1.9504 -1.7797 -1.7139 -1.7797 -1.9504 -2.1712 -2.3945 -2.5896 -2.7384 -2.8310 -2.8624 
-3.3262 -3.2943 -3.2000 -3.0482 -2.8489 -2.6200 -2.3927 -2.2160 -2.1475 -2.2160 -2.3927 -2.6200 -2.8489 -3.0482 -3.2000 -3.2943 -3.3262 
-3.6600 -3.6276 -3.5321 -3.3782 -3.1758 -2.9429 -2.7107 -2.5295 -2.4590 -2.5295 -2.7107 -2.9429 -3.1758 -3.3782 -3.5321 -3.6276 -3.6600 
-3.8611 -3.8285 -3.7322 -3.5771 -3.3729 -3.1374 -2.9023 -2.7182 -2.6466 -2.7182 -2.9023 -3.1374 -3.3729 -3.5771 -3.7322 -3.8285 -3.8611 
-3.9283 -3.8956 -3.7991 -3.6436 -3.4387 -3.2024 -2.9662 -2.7813 -2.7092 -2.7813 -2.9662 -3.2024 -3.4387 -3.6436 -3.7991 -3.8956 -3.9283 
-3.8611 -3.8285 -3.7322 -3.5771 -3.3729 -3.1374 -2.9023 -2.7182 -2.6466 -2.7182 -2.9023 -3.1374 -3.3729 -3.5771 -3.7322 -3.8285 -3.8611 
-3.6600 -3.6276 -3.5321 -3.3782 -3.1758 -2.9429 -2.7107 -2.5295 -2.4590 -2.5295 -2.7107 -2.9429 -3.1758 -3.3782 -3.5321 -3.6276 -3.6600 

-3.0606 -3.0289 -2.9356 -2.7855 -2.5886 -2.3628 -2.1392 -1.9660 -1.8991 -1.9660 -2.1393 -2.3628 -2.5886 -2.7855 -2.9356 -3.0289 -3.0606 
-2.6648 -2.6337 -2.5418 -2.3941 -2.2008 -1.9797 -1.7616 -1.5933 -1.5284 -1.5933 -1.7616 -1.9797 -2.2008 -2.3941 -2.5418 -2.6337 -2.6648 
-2.1433 -2.1127 -2.0227 -1.8783 -1.6896 -1.4745 -1.2633 -1.1011 -1.0389 -1.1011 -1.2633 -1.4745 -1.6896 -1.8783 -2.0227 -2.1127 -2.1433 
-1.5035 -1.4738 -1.3861 -1.2456 -1.0624 -0.8544 -0.6511 -0.4959 -0.4367 -0.4959 -0.6511 -0.8544 -1.0624 -1.2456 -1.3861 -1.4738 -1.5035 
-0.7625 -0.7336 -0.6485 -0.5123 -0.3351 -0.1346 0.0606 0.2087 0.2651 0.2087 0.0606 -0.1346 -0.3351 -0.5123 -0.6485 -0.7336 -0.7625 
0.0266 0.0547 0.1374 0.2697 0.4416 0.6360 0.8249 0.9679 1.0222 0.9679 0.8249 0.6360 0.4416 0.2697 0.1374 0.0547 0.0266 
0.0266 0.0547 0.1374 0.2697 0.4416 0.6360 0.8249 0.9679 1.0222 0.9679 0.8249 0.6360 0.4416 0.2697 0.1374 0.0547 0.0266 
-0.7625 -0.7336 -0.6485 -0.5123 -0.3351 -0.1346 0.0606 0.2087 0.2651 0.2087 0.0606 -0.1346 -0.3351 -0.5123 -0.6485 -0.7336 -0.7625 
-1.5035 -1.4738 -1.3861 -1.2456 -1.0624 -0.8544 -0.6511 -0.4959 -0.4367 -0.4959 -0.6511 -0.8544 -1.0624 -1.2456 -1.3861 -1.4738 -1.5035 
-2.1433 -2.1127 -2.0227 -1.8783 -1.6896 -1.4745 -1.2633 -1.1011 -1.0389 -1.1011 -1.2633 -1.4745 -1.6896 -1.8783 -2.0227 -2.1127 -2.1433 
-2.6648 -2.6337 -2.5418 -2.3941 -2.2008 -1.9797 -1.7616 -1.5933 -1.5284 -1.5933 -1.7616 -1.9797 -2.2008 -2.3941 -2.5418 -2.6337 -2.6648 
-3.0606 -3.0289 -2.9356 -2.7855 -2.5886 -2.3628 -2.1393 -1.9660 -1.8991 -1.9660 -2.1393 -2.3628 -2.5886 -2.7855 -2.9356 -3.0289 -3.0606 
-3.3262 -3.2943 -3.2000 -3.0482 -2.8489 -2.6200 -2.3927 -2.2160 -2.1475 -2.2160 -2.3927 -2.6200 -2.8489 -3.0482 -3.2000 -3.2943 -3.3262 
-3.4596 -3.4275 -3.3327 -3.1801 -2.9796 -2.7491 -2.5198 -2.3414 -2.2722 -2.3414 -2.5198 -2.7491 -2.9796 -3.1801 -3.3327 -3.4275 -3.4596 
-3.4596 -3.4275 -3.3327 -3.1801 -2.9796 -2.7491 -2.5198 -2.3414 -2.2722 -2.3414 -2.5198 -2.7491 -2.9796 -3.1801 -3.3327 -3.4275 -3.4596 
-3.3262 -3.2943 -3.2000 -3.0482 -2.8489 -2.6200 -2.3927 -2.2160 -2.1475 -2.2160 -2.3927 -2.6200 -2.8489 -3.0482 -3.2000 -3.2943 -3.3262 
-3.0606 -3.0289 -2.9356 -2.7855 -2.5886 -2.3628 -2.1392 -1.9660 -1.8991 -1.9660 -2.1392 -2.3628 -2.5886 -2.7855 -2.9356 -3.0289 -3.0606 

-2.3381 -2.3073 -2.2165 -2.0709 -1.8804 -1.6630 -1.4490 -1.2844 -1.2212 -1.2844 -1.4490 -1.6630 -1.8804 -2.0709 -2.2165 -2.3073 -2.3381 
-1.8868 -1.8566 -1.7675 -1.6245 -1.4378 -1.2253 -1.0168 -0.8571 -0.7959 -0.8571 -1.0168 -1.2253 -1.4378 -1.6245 -1.7675 -1.8566 -1.8868 
-1.3218 -1.2922 -1.2050 -1.0653 -0.8831 -0.6762 -0.4739 -0.3196 -0.2606 -0.3196 -0.4739 -0.6762 -0.8831 -1.0653 -1.2050 -1.2922 -1.3218 
-0.6744 -0.6454 -0.5602 -0.4237 -0.2458 -0.0439 0.1532 0.3034 0.3606 0.3034 0.1532 -0.0439 -0.2458 -0.4237 -0.5602 -0.6454 -0.6744 
-0.1074 -0.0790 0.0049 0.1394 0.3148 0.5144 0.7097 0.8589 0.9160 0.8589 0.7097 0.5144 0.3148 0.1394 0.0049 -0.0790 -0.1074 
0.0266 0.0547 0.1374 0.2697 0.4416 0.6360 0.8249 0.9679 1.0222 0.9679 0.8249 0.6360 0.4416 0.2697 0.1374 0.0547 0.0266 
-0.1074 -0.0790 0.0049 0.1394 0.3148 0.5144 0.7097 0.8589 0.9160 0.8589 0.7097 0.5144 0.3148 0.1394 0.0049 -0.0790 -0.1074 
-0.6744 -0.6454 -0.5602 -0.4237 -0.2458 -0.0439 0.1532 0.3034 0.3606 0.3034 0.1532 -0.0439 -0.2458 -0.4237 -0.5602 -0.6454 -0.6744 
-1.3218 -1.2922 -1.2050 -1.0653 -0.8831 -0.6762 -0.4739 -0.3196 -0.2606 -0.3196 -0.4739 -0.6762 -0.8831 -1.0653 -1.2050 -1.2922 -1.3218 
-1.8868 -1.8566 -1.7675 -1.6245 -1.4378 -1.2253 -1.0168 -0.8571 -0.7959 -0.8571 -1.0168 -1.2253 -1.4378 -1.6245 -1.7675 -1.8566 -1.8868 
-2.3381 -2.3073 -2.2165 -2.0709 -1.8804 -1.6629 -1.4490 -1.2844 -1.2212 -1.2844 -1.4490 -1.6629 -1.8804 -2.0709 -2.2165 -2.3073 -2.3381 
-2.6648 -2.6337 -2.5418 -2.3941 -2.2008 -1.9797 -1.7616 -1.5933 -1.5284 -1.5933 -1.7616 -1.9797 -2.2008 -2.3941 -2.5418 -2.6337 -2.6648 
-2.8624 -2.8310 -2.7384 -2.5895 -2.3945 -2.1712 -1.9504 -1.7797 -1.7139 -1.7797 -1.9504 -2.1712 -2.3945 -2.5895 -2.7384 -2.8310 -2.8624 
-2.9285 -2.8970 -2.8042 -2.6549 -2.4592 -2.2352 -2.0135 -1.8421 -1.7759 -1.8421 -2.0135 -2.2352 -2.4593 -2.6549 -2.8042 -2.8970 -2.9285 
-2.8624 -2.8310 -2.7384 -2.5895 -2.3945 -2.1711 -1.9504 -1.7797 -1.7139 -1.7797 -1.9504 -2.1712 -2.3945 -2.5895 -2.7384 -2.8310 -2.8624 
-2.6648 -2.6337 -2.5418 -2.3941 -2.2008 -1.9797 -1.7616 -1.5933 -1.5284 -1.5933 -1.7616 -1.9797 -2.2008 -2.3941 -2.5418 -2.6337 -2.6648 
-2.3381 -2.3073 -2.2165 -2.0709 -1.8804 -1.6629 -1.4490 -1.2844 -1.2212 -1.2844 -1.4490 -1.6629 -1.8804 -2.0709 -2.2165 -2.3073 -2.3381 

-1.5114 -1.4816 -1.3936 -1.2527 -1.0687 -0.8595 -0.6546 -0.4979 -0.4380 -0.4979 -0.6546 -0.8595 -1.0687 -1.2527 -1.3937 -1.4816 -1.5114 
-1.0447 -1.0153 -0.9287 -0.7897 -0.6082 -0.4017 -0.1993 -0.0444 0.0148 -0.0444 -0.1993 -0.4017 -0.6082 -0.7897 -0.9287 -1.0153 -1.0447 
-0.6551 -0.6259 -0.5398 -0.4016 -0.2204 -0.0133 0.1910 0.3486 0.4092 0.3486 0.1910 -0.0133 -0.2204 -0.4016 -0.5399 -0.6259 -0.6551 
-0.6744 -0.6454 -0.5602 -0.4237 -0.2458 -0.0439 0.1532 0.3034 0.3606 0.3034 0.1532 -0.0439 -0.2458 -0.4237 -0.5602 -0.6454 -0.6744 
-0.7625 -0.7336 -0.6485 -0.5123 -0.3351 -0.1346 0.0606 0.2087 0.2651 0.2087 0.0606 -0.1346 -0.3351 -0.5123 -0.6485 -0.7336 -0.7625 
-0.7625 -0.7336 -0.6485 -0.5123 -0.3351 -0.1346 0.0606 0.2087 0.2651 0.2087 0.0606 -0.1346 -0.3351 -0.5123 -0.6485 -0.7336 -0.7625 
-0.6744 -0.6454 -0.5602 -0.4237 -0.2458 -0.0439 0.1532 0.3034 0.3606 0.3034 0.1532 -0.0439 -0.2458 -0.4237 -0.5602 -0.6454 -0.6744 
-0.6551 -0.6259 -0.5398 -0.4016 -0.2204 -0.0133 0.1910 0.3486 0.4092 0.3486 0.1910 -0.0133 -0.2204 -0.4016 -0.5398 -0.6259 -0.6551 
-1.0447 -1.0153 -0.9287 -0.7897 -0.6082 -0.4017 -0.1993 -0.0444 0.0148 -0.0444 -0.1993 -0.4017 -0.6082 -0.7897 -0.9287 -1.0153 -1.0447 
-1.5114 -1.4816 -1.3937 -1.2527 -1.0687 -0.8595 -0.6546 -0.4979 -0.4380 -0.4979 -0.6546 -0.8595 -1.0687 -1.2527 -1.3937 -1.4816 -1.5114 
-1.8868 -1.8566 -1.7675 -1.6245 -1.4378 -1.2253 -1.0168 -0.8571 -0.7959 -0.8571 -1.0168 -1.2253 -1.4378 -1.6245 -1.7675 -1.8566 -1.8868 
-2.1433 -2.1127 -2.0227 -1.8783 -1.6896 -1.4745 -1.2633 -1.1011 -1.0389 -1.1011 -1.2633 -1.4745 -1.6896 -1.8783 -2.0227 -2.1127 -2.1433 
-2.2728 -2.2421 -2.1517 -2.0065 -1.8167 -1.6004 -1.3876 -1.2242 -1.1614 -1.2242 -1.3876 -1.6004 -1.8167 -2.0065 -2.1517 -2.2421 -2.2728 
-2.2728 -2.2421 -2.1517 -2.0065 -1.8167 -1.6004 -1.3876 -1.2242 -1.1614 -1.2242 -1.3876 -1.6004 -1.8167 -2.0065 -2.1517 -2.2421 -2.2728 
-2.1433 -2.1127 -2.0227 -1.8783 -1.6896 -1.4745 -1.2633 -1.1011 -1.0389 -1.1011 -1.2633 -1.4745 -1.6896 -1.8783 -2.0227 -2.1127 -2.1433 
-1.8868 -1.8566 -1.7674 -1.6245 -1.4378 -1.2253 -1.0168 -0.8571 -0.7959 -0.8571 -1.0168 -1.2253 -1.4378 -1.6245 -1.7675 -1.8566 -1.8868 
-1.5114 -1.4816 -1.3936 -1.2527 -1.0687 -0.8595 -0.6546 -0.4979 -0.4380 -0.4979 -0.6546 -0.8595 -1.0687 -1.2527 -1.3936 -1.4816 -1.5114 

-0.8381 -0.8087 -0.7219 -0.5824 -0.3994 -0.1898 0.0176 0.1780 0.2399 0.1780 0.0176 -0.1898 -0.3994 -0.5824 -0.7219 -0.8087 -0.8381 
-1.0447 -1.0153 -0.9287 -0.7897 -0.6082 -0.4017 -0.1993 -0.0444 0.0148 -0.0444 -0.1993 -0.4017 -0.6082 -0.7897 -0.9287 -1.0153 -1.0447 
-1.3218 -1.2922 -1.2050 -1.0653 -0.8831 -0.6762 -0.4739 -0.3196 -0.2606 -0.3196 -0.4739 -0.6762 -0.8831 -1.0653 -1.2050 -1.2922 -1.3218 
-1.5035 -1.4738 -1.3861 -1.2456 -1.0624 -0.8544 -0.6511 -0.4959 -0.4367 -0.4959 -0.6511 -0.8544 -1.0624 -1.2456 -1.3861 -1.4738 -1.5035 
-1.5655 -1.5357 -1.4478 -1.3070 -1.1235 -0.9150 -0.7112 -0.5557 -0.4963 -0.5557 -0.7112 -0.9150 -1.1235 -1.3070 -1.4478 -1.5357 -1.5655 
-1.5035 -1.4738 -1.3861 -1.2456 -1.0624 -0.8544 -0.6511 -0.4959 -0.4367 -0.4959 -0.6511 -0.8544 -1.0624 -1.2456 -1.3861 -1.4738 -1.5035 
-1.3218 -1.2922 -1.2050 -1.0653 -0.8831 -0.6762 -0.4739 -0.3196 -0.2606 -0.3196 -0.4739 -0.6762 -0.8831 -1.0653 -1.2050 -1.2922 -1.3218 
-1.0447 -1.0153 -0.9287 -0.7897 -0.6082 -0.4017 -0.1993 -0.0444 0.0148 -0.0444 -0.1993 -0.4017 -0.6082 -0.7897 -0.9287 -1.0153 -1.0447 
-0.8381 -0.8087 -0.7219 -0.5824 -0.3994 -0.1898 0.0176 0.1780 0.2399 0.1780 0.0176 -0.1898 -0.3994 -0.5824 -0.7219 -0.8087 -0.8381 
-1.0447 -1.0153 -0.9287 -0.7897 -0.6082 -0.4017 -0.1993 -0.0444 0.0148 -0.0444 -0.1993 -0.4017 -0.6082 -0.7897 -0.9287 -1.0153 -1.0447 
-1.3218 -1.2922 -1.2050 -1.0653 -0.8831 -0.6762 -0.4739 -0.3196 -0.2606 -0.3196 -0.4739 -0.6762 -0.8831 -1.0653 -1.2050 -1.2922 -1.3218 
-1.5035 -1.4738 -1.3861 -1.2456 -1.0624 -0.8544 -0.6511 -0.4959 -0.4367 -0.4959 -0.6511 -0.8544 -1.0624 -1.2456 -1.3861 -1.4738 -1.5035 
-1.5655 -1.5357 -1.4478 -1.3070 -1.1235 -0.9150 -0.7112 -0.5557 -0.4963 -0.5557 -0.7112 -0.9150 -1.1235 -1.3070 -1.4478 -1.5357 -1.5655 
-1.5035 -1.4738 -1.3861 -1.2456 -1.0624 -0.8544 -0.6511 -0.4959 -0.4367 -0.4959 -0.6511 -0.8544 -1.0624 -1.2456 -1.3861 -1.4738 -1.5035 
-1.3218 -1.2922 -1.2050 -1.0653 -0.8831 -0.6762 -0.4739 -0.3196 -0.2606 -0.3196 -0.4739 -0.6762 -0.8831 -1.0653 -1.2050 -1.2922 -1.3218 
-1.0447 -1.0153 -0.9287 -0.7897 -0.6082 -0.4017 -0.1993 -0.0444 0.0148 -0.0444 -0.1993 -0.4017 -0.6082 -0.7897 -0.9287 -1.0153 -1.0447 
-0.8381 -0.8087 -0.7219 -0.5824 -0.3994 -0.1898 0.0176 0.1780 0.2399 0.1780 0.0176 -0.1898 -0.3994 -0.5824 -0.7219 -0.8087 -0.8381 

-1.5114 -1.4816 -1.3936 -1.2527 -1.0687 -0.8595 -0.6546 -0.4979 -0.4380 -0.4979 -0.6546 -0.8595 -1.0687 -1.2527 -1.3936 -1.4816 -1.5114 
-1.8868 -1.8566 -1.7675 -1.6245 -1.4378 -1.2253 -1.0168 -0.8571 -0.7959 -0.8571 -1.0168 -1.2253 -1.4378 -1.6245 -1.7675 -1.8566 -1.8868 
-2.1433 -2.1127 -2.0227 -1.8783 -1.6896 -1.4745 -1.2633 -1.1011 -1.0389 -1.1011 -1.2633 -1.4745 -1.6896 -1.8783 -2.0227 -2.1127 -2.1433 
-2.2728 -2.2421 -2.1517 -2.0065 -1.8167 -1.6004 -1.3876 -1.2242 -1.1614 -1.2242 -1.3876 -1.6004 -1.8167 -2.0065 -2.1517 -2.2421 -2.2728 
-2.2728 -2.2421 -2.1517 -2.0065 -1.8167 -1.6004 -1.3876 -1.2242 -1.1614 -1.2242 -1.3876 -1.6004 -1.8167 -2.0065 -2.1517 -2.2421 -2.2728 
-2.1433 -2.1127 -2.0227 -1.8783 -1.6896 -1.4745 -1.2633 -1.1011 -1.0389 -1.1011 -1.2633 -1.4745 -1.6896 -1.8783 -2.0227 -2.1127 -2.1433 
-1.8868 -1.8566 -1.7675 -1.6245 -1.4378 -1.2253 -1.0168 -0.8571 -0.7959 -0.8571 -1.0168 -1.2253 -1.4378 -1.6245 -1.7675 -1.8566 -1.8868 
-1.5114 -1.4816 -1.3937 -1.2527 -1.0687 -0.8595 -0.6546 -0.4979 -0.4380 -0.4979 -0.6546 -0.8595 -1.0687 -1.2527 -1.3937 -1.4816 -1.5114 
-1.0447 -1.0153 -0.9287 -0.7897 -0.6082 -0.4017 -0.1993 -0.0444 0.0148 -0.0444 -0.1993 -0.4017 -0.6082 -0.7897 -0.9287 -1.0153 -1.0447 
-0.6551 -0.6259 -0.5398 -0.4016 -0.2204 -0.0133 0.1910 0.3486 0.4092 0.3486 0.1910 -0.0133 -0.2204 -0.4016 -0.5398 -0.6259 -0.6551 
-0.6744 -0.6454 -0.5602 -0.4237 -0.2458 -0.0439 0.1532 0.3034 0.3606 0.3034 0.1532 -0.0439 -0.2458 -0.4237 -0.5602 -0.6454 -0.6744 
-0.7625 -0.7336 -0.6485 -0.5123 -0.3351 -0.1346 0.0606 0.2087 0.2651 0.2087 0.0606 -0.1346 -0.3351 -0.5123 -0.6485 -0.7336 -0.7625 
-0.7625 -0.7336 -0.6485 -0.5123 -0.3351 -0.1346 0.0606 0.2087 0.2651 0.2087 0.0606 -0.1346 -0.3351 -0.5123 -0.6485 -0.7336 -0.7625 
-0.6744 -0.6454 -0.5602 -0.4237 -0.2458 -0.0439 0.1532 0.3034 0.3606 0.3034 0.1532 -0.0439 -0.2458 -0.4237 -0.5602 -0.6454 -0.6744 
-0.6551 -0.6259 -0.5399 -0.4016 -0.2204 -0.0133 0.1910 0.3486 0.4092 0.3486 0.1910 -0.0133 -0.2204 -0.4016 -0.5399 -0.6259 -0.6551 
-1.0447 -1.0153 -0.9287 -0.7897 -0.6082 -0.4017 -0.1993 -0.0444 0.0148 -0.0444 -0.1993 -0.4017 -0.6082 -0.7897 -0.9287 -1.0153 -1.0447 
-1.5114 -1.4816 -1.3937 -1.2527 -1.0687 -0.8595 -0.6546 -0.4979 -0.4380 -0.4979 -0.6546 -0.8595 -1.0687 -1.2527 -1.3937 -1.4816 -1.5114 

-2.3381 -2.3073 -2.2165 -2.0709 -1.8804 -1.6629 -1.4490 -1.2844 -1.2212 -1.2844 -1.4490 -1.6630 -1.8804 -2.0709 -2.2165 -2.3073 -2.3381 
-2.6648 -2.6337 -2.5418 -2.3941 -2.2008 -1.9797 -1.7616 -1.5933 -1.5284 -1.5933 -1.7616 -1.9797 -2.2008 -2.3941 -2.5418 -2.6337 -2.6648 
-2.8624 -2.8310 -2.7384 -2.5895 -2.3945 -2.1711 -1.9504 -1.7797 -1.7139 -1.7797 -1.9504 -2.1712 -2.3945 -2.5895 -2.7384 -2.8310 -2.8624 
-2.9285 -2.8970 -2.8042 -2.6549 -2.4592 -2.2352 -2.0135 -1.8421 -1.7759 -1.8421 -2.0135 -2.2352 -2.4593 -2.6549 -2.8042 -2.8970 -2.9285 
-2.8624 -2.8310 -2.7384 -2.5895 -2.3945 -2.1712 -1.9504 -1.7797 -1.7139 -1.7797 -1.9504 -2.1712 -2.3945 -2.5895 -2.7384 -2.8310 -2.8624 
-2.6648 -2.6337 -2.5418 -2.3941 -2.2008 -1.9797 -1.7616 -1.5933 -1.5284 -1.5933 -1.7616 -1.9797 -2.2008 -2.3941 -2.5418 -2.6337 -2.6648 
-2.3381 -2.3073 -2.2165 -2.0709 -1.8804 -1.6629 -1.4490 -1.2844 -1.2212 -1.2844 -1.4490 -1.6629 -1.8804 -2.0709 -2.2165 -2.3073 -2.3381 
-1.8868 -1.8566 -1.7675 -1.6245 -1.4378 -1.2253 -1.0168 -0.8571 -0.7959 -0.8571 -1.0168 -1.2253 -1.4378 -1.6245 -1.7675 -1.8566 -1.8868 
-1.3218 -1.2922 -1.2050 -1.0653 -0.8831 -0.6762 -0.4739 -0.3196 -0.2606 -0.3196 -0.4739 -0.6762 -0.8831 -1.0653 -1.2050 -1.2922 -1.3218 
-0.6744 -0.6454 -0.5602 -0.4237 -0.2458 -0.0439 0.1532 0.3034 0.3606 0.3034 0.1532 -0.0439 -0.2458 -0.4237 -0.5602 -0.6454 -0.6744 
-0.1074 -0.0790 0.0049 0.1394 0.3148 0.5144 0.7097 0.8589 0.9160 0.8589 0.7097 0.5144 0.3148 0.1394 0.0049 -0.0790 -0.1074 
0.0266 0.0547 0.1374 0.2697 0.4416 0.6360 0.8249 0.9679 1.0222 0.9679 0.8249 0.6360 0.4416 0.2697 0.1374 0.0547 0.0266 
-0.1074 -0.0790 0.0049 0.1394 0.3148 0.5144 0.7097 0.8589 0.9160 0.8589 0.7097 0.5144 0.3148 0.1394 0.0049 -0.0790 -0.1074 
-0.6744 -0.6454 -0.5602 -0.4237 -0.2458 -0.0439 0.1532 0.3034 0.3606 0.3034 0.1532 -0.0439 -0.2458 -0.4237 -0.5602 -0.6454 -0.6744 
-1.3218 -1.2922 -1.2050 -1.0653 -0.8831 -0.6762 -0.4739 -0.3196 -0.2606 -0.3196 -0.4739 -0.6762 -0.8831 -1.0653 -1.2050 -1.2922 -1.3218 
-1.8868 -1.8566 -1.7675 -1.6245 -1.4378 -1.2253 -1.0168 -0.8571 -0.7959 -0.8571 -1.0168 -1.2253 -1.4378 -1.6245 -1.7675 -1.8566 -1.8868 
-2.3381 -2.3073 -2.2165 -2.0709 -1.8804 -1.6630 -1.4490 -1.2844 -1.2212 -1.2844 -1.4490 -1.6630 -1.8804 -2.0709 -2.2165 -2.3073 -2.3381 

-3.0606 -3.0289 -2.9356 -2.7855 -2.5886 -2.3628 -2.1392 -1.9660 -1.8991 -1.9660 -2.1392 -2.3628 -2.5886 -2.7855 -2.9356 -3.0289 -3.0606 
-3.3262 -3.2943 -3.2000 -3.0482 -2.8489 -2.6200 -2.3927 -2.2160 -2.1475 -2.2160 -2.3927 -2.6200 -2.8489 -3.0482 -3.2000 -3.2943 -3.3262 
-3.4596 -3.4275 -3.3327 -3.1801 -2.9796 -2.7491 -2.5198 -2.3414 -2.2722 -2.3414 -2.5198 -2.7491 -2.9796 -3.1801 -3.3327 -3.4275 -3.4596 
-3.4596 -3.4275 -3.3327 -3.1801 -2.9796 -2.7491 -2.5198 -2.3414 -2.2722 -2.3414 -2.5198 -2.7491 -2.9796 -3.1801 -3.3327 -3.4275 -3.4596 
-3.3262 -3.2943 -3.2000 -3.0482 -2.8489 -2.6200 -2.3927 -2.2160 -2.1475 -2.2160 -2.3927 -2.6200 -2.8489 -3.0482 -3.2000 -3.2943 -3.3262 
-3.0606 -3.0289 -2.9356 -2.7855 -2.5886 -2.3628 -2.1393 -1.9660 -1.8991 -1.9660 -2.1393 -2.3628 -2.5886 -2.7855 -2.9356 -3.0289 -3.0606 
-2.6648 -2.6337 -2.5418 -2.3941 -2.2008 -1.9797 -1.7616 -1.5933 -1.5284 -1.5933 -1.7616 -1.9797 -2.2008 -2.3941 -2.5418 -2.6337 -2.6648 
-2.1433 -2.1127 -2.0227 -1.8783 -1.6896 -1.4745 -1.2633 -1.1011 -1.0389 -1.1011 -1.2633 -1.4745 -1.6896 -1.8783 -2.0227 -2.1127 -2.1433 
-1.5035 -1.4738 -1.3861 -1.2456 -1.0624 -0.8544 -0.6511 -0.4959 -0.4366 -0.4959 -0.6511 -0.8544 -1.0624 -1.2456 -1.3861 -1.4738 -1.5035 
-0.7625 -0.7336 -0.6485 -0.5123 -0.3351 -0.1346 0.0606 0.2087 0.2651 0.2087 0.0606 -0.1346 -0.3351 -0.5123 -0.6485 -0.7336 -0.7625 
0.0266 0.0547 0.1374 0.2697 0.4416 0.6360 0.8249 0.9679 1.0222 0.9679 0.8249 0.6360 0.4416 0.2697 0.1374 0.0547 0.0266 
0.0266 0.0547 0.1374 0.2697 0.4416 0.6360 0.8249 0.9679 1.0222 0.9679 0.8249 0.6360 0.4416 0.2697 0.1374 0.0547 0.0266 
-0.7625 -0.7336 -0.6485 -0.5123 -0.3351 -0.1346 0.0606 0.2087 0.2651 0.2087 0.0606 -0.1346 -0.3351 -0.5123 -0.6485 -0.7336 -0.7625 
-1.5035 -1.4738 -1.3861 -1.2456 -1.0624 -0.8544 -0.6511 -0.4959 -0.4367 -0.4959 -0.6511 -0.8544 -1.0624 -1.2456 -1.3861 -1.4738 -1.5035 
-2.1433 -2.1127 -2.0227 -1.8783 -1.6896 -1.4745 -1.2633 -1.1011 -1.0389 -1.1011 -1.2633 -1.4745 -1.6896 -1.8783 -2.0227 -2.1127 -2.1433 
-2.6648 -2.6337 -2.5418 -2.3941 -2.2008 -1.9797 -1.7616 -1.5933 -1.5284 -1.5933 -1.7616 -1.9797 -2.2008 -2.3941 -2.5418 -2.6337 -2.6648 
-3.0606 -3.0289 -2.9356 -2.7855 -2.5886 -2.3628 -2.1393 -1.9660 -1.8991 -1.9660 -2.1393 -2.3628 -2.5886 -2.7855 -2.9356 -3.0289 -3.0606 

-3.6600 -3.6276 -3.5321 -3.3782 -3.1758 -2.9429 -2.7107 -2.5295 -2.4590 -2.5295 -2.7107 -2.9429 -3.1758 -3.3782 -3.5321 -3.6276 -3.6600 
-3.8611 -3.8285 -3.7322 -3.5771 -3.3729 -3.1374 -2.9023 -2.7182 -2.6466 -2.7182 -2.9023 -3.1374 -3.3729 -3.5771 -3.7322 -3.8285 -3.8611 
-3.9283 -3.8956 -3.7991 -3.6436 -3.4387 -3.2024 -2.9662 -2.7813 -2.7092 -2.7813 -2.9662 -3.2024 -3.4387 -3.6436 -3.7991 -3.8956 -3.9283 
-3.8611 -3.8285 -3.7322 -3.5771 -3.3729 -3.1374 -2.9023 -2.7182 -2.6466 -2.7182 -2.9023 -3.1374 -3.3729 -3.5771 -3.7322 -3.8285 -3.8611 
-3.6600 -3.6276 -3.5321 -3.3782 -3.1758 -2.9429 -2.7107 -2.5295 -2.4590 -2.5295 -2.7107 -2.9429 -3.1758 -3.3782 -3.5321 -3.6276 -3.6600 
-3.3262 -3.2943 -3.2000 -3.0482 -2.8489 -2.6200 -2.3927 -2.2160 -2.1475 -2.2160 -2.3927 -2.6200 -2.8489 -3.0482 -3.2000 -3.2943 -3.3262 
-2.8624 -2.8310 -2.7384 -2.5895 -2.3945 -2.1712 -1.9504 -1.7797 -1.7139 -1.7797 -1.9504 -2.1712 -2.3945 -2.5896 -2.7384 -2.8310 -2.8624 
-2.2728 -2.2421 -2.1517 -2.0065 -1.8167 -1.6004 -1.3876 -1.2242 -1.1614 -1.2242 -1.3876 -1.6004 -1.8167 -2.0065 -2.1517 -2.2421 -2.2728 
-1.5655 -1.5357 -1.4478 -1.3070 -1.1235 -0.9150 -0.7112 -0.5557 -0.4963 -0.5557 -0.7112 -0.9150 -1.1235 -1.3070 -1.4478 -1.5357 -1.5655 
-0.7625 -0.7336 -0.6485 -0.5123 -0.3351 -0.1346 0.0606 0.2087 0.2651 0.2087 0.0606 -0.1346 -0.3351 -0.5123 -0.6485 -0.7336 -0.7625 
-0.1074 -0.0790 0.0049 0.1394 0.3148 0.5144 0.7097 0.8589 0.9160 0.8589 0.7097 0.5144 0.3148 0.1394 0.0049 -0.0790 -0.1074 
-0.7625 -0.7336 -0.6485 -0.5123 -0.3351 -0.1346 0.0606 0.2087 0.2651 0.2087 0.0606 -0.1346 -0.3351 -0.5123 -0.6485 -0.7336 -0.7625 
-1.5655 -1.5357 -1.4478 -1.3070 -1.1235 -0.9150 -0.7112 -0.5557 -0.4963 -0.5557 -0.7112 -0.9150 -1.1235 -1.3070 -1.4478 -1.5357 -1.5655 
-2.2728 -2.2421 -2.1517 -2.0065 -1.8167 -1.6004 -1.3876 -1.2242 -1.1614 -1.2242 -1.3876 -1.6004 -1.8167 -2.0065 -2.1517 -2.2421 -2.2728 